# Probe 0 (0.15 0.05 0)
# Probe 1 (0.15 0 0)
# Probe 2 (0.15 -0.05 0)
# Probe 3 (0.35 0.1 0)
# Probe 4 (0.35 0.05 0)
# Probe 5 (0.35 0 0)
# Probe 6 (0.35 -0.05 0)
# Probe 7 (0.35 -0.1 0)
# Probe 8 (0.55 0.1 0)
# Probe 9 (0.55 -0.05 0)
# Probe 10 (0.55 0 0)
# Probe 11 (0.55 -0.05 0)
# Probe 12 (0.55 -0.1 0)
#         Probe               0               1               2               3               4               5               6               7               8               9              10              11              12
#          Time
           0.25  -0.00035280721  -0.00032905897    -0.000352685  -0.00031694638  -0.00031488721  -0.00031377054   -0.0003147416   -0.0003168043  -0.00020373392  -0.00020679605  -0.00020796647  -0.00020679605  -0.00020311381
            0.5   0.00016318537   0.00015142103   0.00016308655   0.00015373011   0.00015249506     0.000151849   0.00015237722   0.00015358875   0.00010053801   0.00010191057   0.00010246733   0.00010191057   0.00010019116
           0.75  -1.9302096e-05  -1.8741924e-05  -1.9219413e-05  -1.5674814e-05   -1.574295e-05  -1.5735495e-05  -1.5675224e-05  -1.5532304e-05  -1.0920329e-05  -1.0992631e-05  -1.1062363e-05  -1.0992631e-05  -1.0812682e-05
              1  -1.0280053e-05  -1.0257295e-05  -1.0285903e-05  -5.7353398e-06  -5.9003952e-06  -5.9662162e-06  -5.9158842e-06  -5.7450744e-06  -3.4828078e-06  -3.5730251e-06  -3.5953008e-06  -3.5730251e-06  -3.4944772e-06
           1.25  -9.4853164e-06  -9.5097623e-06  -9.4884444e-06  -5.1524242e-06  -5.3134594e-06  -5.3719383e-06  -5.3140125e-06  -5.1361199e-06  -3.1773508e-06  -3.2451715e-06  -3.2697144e-06  -3.2451715e-06  -3.1688266e-06
            1.5   -8.757447e-06  -8.8243366e-06  -8.7595663e-06  -4.5280035e-06  -4.6926214e-06  -4.7533797e-06  -4.6939077e-06  -4.5126142e-06  -2.7836847e-06  -2.8460179e-06  -2.8679966e-06  -2.8460179e-06  -2.7773319e-06
           1.75  -8.2783767e-06   -8.376023e-06  -8.2797116e-06  -4.0999477e-06  -4.2678935e-06  -4.3301392e-06  -4.2686592e-06  -4.0833089e-06  -2.5143999e-06  -2.5721958e-06  -2.5927426e-06  -2.5721958e-06  -2.5083448e-06
              2  -7.9445943e-06  -8.0648729e-06  -7.9442112e-06  -3.7859962e-06  -3.9572637e-06  -4.0212501e-06    -3.95831e-06  -3.7693811e-06  -2.3148583e-06  -2.3701761e-06  -2.3893971e-06  -2.3701761e-06  -2.3101991e-06
           2.25  -7.6977121e-06  -7.8371997e-06  -7.6976213e-06  -3.5399535e-06  -3.7144365e-06  -3.7797543e-06  -3.7151996e-06  -3.5225969e-06   -2.159429e-06  -2.2120732e-06  -2.2305396e-06  -2.2120732e-06  -2.1547439e-06
            2.5  -7.5042911e-06   -7.659974e-06  -7.5044054e-06  -3.3350571e-06  -3.5126943e-06  -3.5791917e-06  -3.5129465e-06  -3.3165614e-06  -2.0293268e-06  -2.0795101e-06  -2.0974476e-06  -2.0795101e-06  -2.0242621e-06
           2.75  -7.3472408e-06  -7.5168035e-06  -7.3476626e-06  -3.1607843e-06  -3.3417004e-06  -3.4096207e-06  -3.3419852e-06   -3.142091e-06   -1.918679e-06  -1.9672561e-06  -1.9846171e-06  -1.9672561e-06  -1.9138789e-06
              3  -7.2242957e-06  -7.4053036e-06  -7.2238951e-06  -3.0121712e-06  -3.1963398e-06  -3.2655526e-06  -3.1963351e-06  -2.9926321e-06  -1.8241431e-06  -1.8710266e-06  -1.8880478e-06  -1.8710266e-06  -1.8190324e-06
           3.25  -7.1171626e-06  -7.3088374e-06  -7.1170111e-06   -2.876184e-06  -3.0635441e-06  -3.1341222e-06  -3.0635588e-06  -2.8563085e-06  -1.7363165e-06  -1.7819059e-06  -1.7984998e-06  -1.7819059e-06  -1.7313506e-06
            3.5  -7.0245149e-06  -7.2253296e-06  -7.0240422e-06  -2.7559094e-06   -2.946079e-06  -3.0176156e-06  -2.9455524e-06  -2.7348299e-06  -1.6591776e-06  -1.7030851e-06  -1.7195105e-06  -1.7030851e-06  -1.6535517e-06
           3.75  -6.9543174e-06  -7.1638253e-06  -6.9543429e-06  -2.6484523e-06  -2.8422345e-06  -2.9155465e-06  -2.8424035e-06  -2.6282719e-06  -1.5899307e-06  -1.6336848e-06  -1.6495555e-06  -1.6336848e-06   -1.585439e-06
              4  -6.8944483e-06  -7.1110943e-06  -6.8942898e-06  -2.5513697e-06  -2.7484068e-06  -2.8230637e-06  -2.7485707e-06  -2.5308467e-06  -1.5274488e-06  -1.5702373e-06  -1.5858776e-06  -1.5702373e-06  -1.5228769e-06
           4.25  -6.8463992e-06  -7.0696208e-06  -6.8461582e-06  -2.4623693e-06  -2.6626876e-06  -2.7386697e-06  -2.6627586e-06   -2.441319e-06  -1.4697644e-06  -1.5117292e-06  -1.5271668e-06  -1.5117292e-06  -1.4651394e-06
            4.5  -6.8109038e-06  -7.0405275e-06  -6.8107289e-06   -2.379682e-06  -2.5835858e-06  -2.6609992e-06  -2.5836106e-06  -2.3581883e-06  -1.4158091e-06  -1.4571057e-06  -1.4723657e-06  -1.4571057e-06  -1.4111944e-06
           4.75  -6.7787452e-06  -7.0142816e-06   -6.778438e-06  -2.2995964e-06   -2.507066e-06   -2.585871e-06  -2.5070215e-06  -2.2776074e-06  -1.3636332e-06  -1.4042533e-06  -1.4193446e-06  -1.4042533e-06  -1.3589964e-06
              5  -6.7546474e-06  -6.9955701e-06  -6.7541733e-06  -2.2239958e-06  -2.4351798e-06  -2.5154438e-06  -2.4351179e-06  -2.2016187e-06  -1.3142845e-06  -1.3544601e-06  -1.3693535e-06  -1.3544601e-06  -1.3098754e-06
           5.25  -6.7364678e-06  -6.9825377e-06   -6.735842e-06  -2.1531838e-06  -2.3680821e-06  -2.4497392e-06  -2.3678605e-06   -2.130134e-06   -1.268049e-06  -1.3075851e-06   -1.322383e-06  -1.3075851e-06  -1.2634831e-06
            5.5  -6.7204514e-06  -6.9716767e-06  -6.7203808e-06  -2.0829419e-06  -2.3017301e-06  -2.3850395e-06   -2.301856e-06  -2.0601511e-06  -1.2218278e-06  -1.2611137e-06  -1.2756802e-06  -1.2611137e-06  -1.2176373e-06
           5.75  -6.7131257e-06  -6.9689756e-06  -6.7132627e-06  -2.0182476e-06  -2.2410555e-06   -2.326025e-06  -2.2414382e-06  -1.9955528e-06    -1.17891e-06  -1.2180602e-06   -1.232404e-06  -1.2180602e-06  -1.1751595e-06
              6  -6.7084855e-06  -6.9682969e-06  -6.7079991e-06  -1.9556728e-06  -2.1823158e-06  -2.2687132e-06  -2.1825361e-06  -1.9322613e-06  -1.1376028e-06  -1.1763214e-06  -1.1905688e-06  -1.1763214e-06  -1.1338371e-06
           6.25  -6.7063961e-06   -6.970341e-06  -6.7062872e-06  -1.8940837e-06  -2.1248146e-06  -2.2128726e-06  -2.1252321e-06  -1.8706386e-06  -1.0967284e-06  -1.1352744e-06  -1.1493483e-06  -1.1352744e-06  -1.0932751e-06
            6.5  -6.7098142e-06  -6.9773143e-06  -6.7096143e-06  -1.8360194e-06  -2.0707945e-06  -2.1603987e-06  -2.0711373e-06  -1.8120087e-06  -1.0581131e-06  -1.0962396e-06  -1.1102567e-06  -1.0962396e-06   -1.054561e-06
           6.75  -6.7157007e-06  -6.9865182e-06  -6.7155246e-06  -1.7796666e-06  -2.0185269e-06  -2.1097087e-06  -2.0188321e-06  -1.7551751e-06  -1.0205335e-06  -1.0583217e-06  -1.0722673e-06  -1.0583217e-06  -1.0169686e-06
              7  -6.7244532e-06  -6.9981599e-06  -6.7242524e-06  -1.7254809e-06   -1.968406e-06  -2.0611482e-06   -1.968631e-06  -1.7004042e-06  -9.8423441e-07  -1.0216573e-06  -1.0355514e-06  -1.0216573e-06  -9.8059738e-07
           7.25   -6.737805e-06  -7.0140732e-06  -6.7376101e-06  -1.6744486e-06  -1.9215303e-06   -2.015896e-06  -1.9217605e-06   -1.648956e-06  -9.4998139e-07  -9.8717529e-07  -1.0010065e-06  -9.8717529e-07  -9.4638423e-07
            7.5  -6.7548609e-06  -7.0334341e-06  -6.7547197e-06  -1.6254902e-06     -1.8768e-06   -1.972812e-06  -1.8770222e-06  -1.5995495e-06  -9.1700186e-07  -9.5398923e-07  -9.6777122e-07  -9.5398923e-07  -9.1342789e-07
           7.75  -6.7740126e-06   -7.054728e-06  -6.7740216e-06  -1.5774412e-06  -1.8330115e-06  -1.9306927e-06  -1.8332316e-06  -1.5510538e-06  -8.8450475e-07  -9.2118414e-07  -9.3495163e-07  -9.2118414e-07  -8.8080432e-07
              8  -6.7952516e-06  -7.0777644e-06   -6.795281e-06  -1.5316457e-06  -1.7915299e-06  -1.8908737e-06  -1.7917132e-06  -1.5047902e-06  -8.5369811e-07  -8.9024227e-07  -9.0398225e-07  -8.9024227e-07  -8.5003789e-07
           8.25  -6.8206053e-06  -7.1044596e-06    -6.82052e-06  -1.4885678e-06   -1.752651e-06   -1.853557e-06  -1.7526326e-06  -1.4609248e-06  -8.2424773e-07  -8.6051198e-07  -8.7426356e-07  -8.6051198e-07  -8.2043944e-07
            8.5  -6.8492515e-06  -7.1341791e-06  -6.8491436e-06  -1.4473451e-06  -1.7157917e-06  -1.8183779e-06   -1.715765e-06  -1.4192372e-06  -7.9596995e-07  -8.3215116e-07  -8.4588166e-07  -8.3215116e-07  -7.9220836e-07
           8.75  -6.8792037e-06  -7.1649047e-06  -6.8793468e-06  -1.4080063e-06  -1.6807684e-06  -1.7850311e-06  -1.6807994e-06  -1.3795894e-06  -7.6898309e-07  -8.0501719e-07  -8.1874214e-07  -8.0501719e-07   -7.651837e-07
              9  -6.9124975e-06  -7.1986337e-06  -6.9126439e-06  -1.3704965e-06  -1.6476489e-06  -1.7536078e-06  -1.6477191e-06   -1.341685e-06  -7.4309983e-07   -7.791051e-07  -7.9282004e-07   -7.791051e-07  -7.3935327e-07
           9.25  -6.9465454e-06   -7.232708e-06  -6.9464782e-06  -1.3332175e-06  -1.6147161e-06  -1.7223104e-06  -1.6147397e-06  -1.3038715e-06  -7.1731312e-07  -7.5332227e-07  -7.6700931e-07  -7.5332227e-07  -7.1367771e-07
            9.5   -6.984262e-06  -7.2702971e-06   -6.984204e-06  -1.2988409e-06  -1.5847586e-06  -1.6940361e-06  -1.5847859e-06  -1.2690428e-06  -6.9333212e-07  -7.2932202e-07  -7.4302038e-07  -7.2932202e-07  -6.8970975e-07
           9.75  -7.0238334e-06  -7.3093335e-06  -7.0235989e-06  -1.2663521e-06  -1.5566055e-06  -1.6674974e-06  -1.5565347e-06  -1.2358663e-06   -6.703879e-07  -7.0640303e-07  -7.2011213e-07  -7.0640303e-07  -6.6680924e-07
             10  -7.0666194e-06  -7.3514933e-06  -7.0666463e-06  -1.2358721e-06  -1.5306785e-06  -1.6433579e-06  -1.5308002e-06  -1.2053121e-06   -6.488723e-07  -6.8512034e-07  -6.9879383e-07  -6.8512034e-07  -6.4556921e-07
          10.25  -7.1104665e-06  -7.3942211e-06  -7.1105668e-06  -1.2065414e-06  -1.5058093e-06  -1.6201996e-06   -1.505956e-06  -1.1755297e-06  -6.2788261e-07   -6.641788e-07  -6.7788885e-07   -6.641788e-07  -6.2458951e-07
           10.5  -7.1560322e-06  -7.4385866e-06  -7.1563803e-06  -1.1782375e-06  -1.4820182e-06  -1.5981741e-06  -1.4823168e-06  -1.1470423e-06   -6.077661e-07  -6.4422946e-07  -6.5793464e-07  -6.4422946e-07  -6.0464071e-07
          10.75  -7.2037785e-06  -7.4845556e-06  -7.2038852e-06  -1.1515678e-06  -1.4596916e-06   -1.577356e-06  -1.4596547e-06  -1.1193386e-06   -5.888483e-07  -6.2495109e-07   -6.388294e-07  -6.2495109e-07   -5.851538e-07
             11  -7.2533197e-06  -7.5323947e-06  -7.2535579e-06   -1.125618e-06  -1.4383233e-06  -1.5577531e-06  -1.4383874e-06  -1.0931123e-06   -5.700707e-07  -6.0636787e-07  -6.2027203e-07  -6.0636787e-07  -5.6650673e-07
          11.25  -7.3042181e-06  -7.5812992e-06  -7.3043607e-06  -1.1003939e-06  -1.4176017e-06  -1.5386525e-06  -1.4174663e-06  -1.0670646e-06  -5.5175364e-07  -5.8794991e-07  -6.0196826e-07  -5.8794991e-07  -5.4793688e-07
           11.5  -7.3581585e-06  -7.6330541e-06   -7.358321e-06  -1.0766804e-06  -1.3985322e-06  -1.5213359e-06  -1.3983991e-06  -1.0428722e-06  -5.3423335e-07  -5.7055473e-07  -5.8464018e-07  -5.7055473e-07  -5.3041176e-07
          11.75  -7.4144993e-06  -7.6869504e-06  -7.4146775e-06   -1.054215e-06   -1.380765e-06  -1.5053349e-06   -1.380623e-06  -1.0199006e-06  -5.1742698e-07  -5.5388447e-07  -5.6804937e-07  -5.5388447e-07  -5.1358163e-07
             12  -7.4720254e-06  -7.7417759e-06  -7.4722198e-06  -1.0324782e-06  -1.3637479e-06  -1.4900891e-06  -1.3636051e-06   -9.976687e-07  -5.0105691e-07  -5.3766333e-07  -5.5190808e-07  -5.3766333e-07  -4.9719515e-07
          12.25  -7.5310738e-06  -7.7978626e-06  -7.5312833e-06  -1.0117046e-06  -1.3477154e-06  -1.4758232e-06  -1.3475701e-06  -9.7639356e-07  -4.8529145e-07  -5.2205633e-07  -5.3638421e-07  -5.2205633e-07  -4.8140973e-07
           12.5  -7.5942718e-06   -7.857917e-06   -7.594488e-06  -9.9255576e-07  -1.3334371e-06  -1.4633522e-06   -1.333288e-06  -9.5672347e-07  -4.7035038e-07  -5.0731046e-07  -5.2173333e-07  -5.0731046e-07  -4.6644408e-07
          12.75  -7.6578599e-06  -7.9180824e-06  -7.6582069e-06  -9.7424678e-07  -1.3200031e-06  -1.4517698e-06  -1.3199741e-06   -9.381134e-07  -4.5602152e-07  -4.9327495e-07  -5.0775638e-07  -4.9327495e-07  -4.5223485e-07
             13  -7.7229564e-06  -7.9795209e-06  -7.7233042e-06  -9.5643194e-07  -1.3070742e-06  -1.4406452e-06  -1.3070369e-06  -9.1976598e-07  -4.4195009e-07  -4.7940084e-07  -4.9398218e-07  -4.7940084e-07  -4.3812736e-07
          13.25  -7.7876761e-06  -8.0403307e-06  -7.7878794e-06   -9.383712e-07   -1.293885e-06  -1.4292056e-06  -1.2937134e-06  -9.0092698e-07  -4.2776313e-07  -4.6530081e-07  -4.8002246e-07  -4.6530081e-07  -4.2374173e-07
           13.5  -7.8562182e-06  -8.1047885e-06  -7.8563958e-06  -9.2183173e-07  -1.2823441e-06  -1.4195073e-06  -1.2821699e-06    -8.83845e-07  -4.1433355e-07  -4.5210646e-07  -4.6693545e-07  -4.5210646e-07  -4.1028342e-07
          13.75  -7.9252604e-06  -8.1696076e-06   -7.925432e-06  -9.0470648e-07  -1.2703437e-06  -1.4094866e-06  -1.2703412e-06  -8.6645492e-07  -4.0052905e-07  -4.3873219e-07  -4.5360331e-07  -4.3873219e-07  -3.9670301e-07
             14  -7.9963491e-06  -8.2362383e-06  -7.9964436e-06   -8.873793e-07  -1.2582032e-06   -1.399233e-06  -1.2581794e-06  -8.4858132e-07  -3.8614324e-07  -4.2453778e-07  -4.3953824e-07  -4.2453778e-07  -3.8225282e-07
          14.25  -8.0677295e-06   -8.303017e-06  -8.0678189e-06  -8.7068126e-07  -1.2467093e-06  -1.3896562e-06  -1.2466813e-06  -8.3132019e-07  -3.7248418e-07  -4.1113253e-07  -4.2625135e-07  -4.1113253e-07   -3.685629e-07
           14.5  -8.1411297e-06  -8.3716549e-06  -8.1412189e-06   -8.542488e-07  -1.2355919e-06   -1.380498e-06  -1.2355659e-06  -8.1432269e-07  -3.5887661e-07  -3.9780267e-07  -4.1304575e-07  -3.9780267e-07  -3.5493063e-07
          14.75  -8.2158019e-06  -8.4413524e-06  -8.2158749e-06  -8.3789465e-07   -1.224624e-06  -1.3715111e-06   -1.224592e-06  -7.9737841e-07  -3.4522542e-07  -3.8443172e-07  -3.9980803e-07  -3.8443172e-07  -3.4124149e-07
             15   -8.291918e-06  -8.5123186e-06  -8.2919916e-06  -8.2154864e-07  -1.2137644e-06  -1.3626711e-06  -1.2137341e-06  -7.8044693e-07  -3.3151241e-07  -3.7101934e-07  -3.8653267e-07  -3.7101934e-07  -3.2750045e-07
          15.25   -8.369036e-06  -8.5840739e-06  -8.3691199e-06  -8.0534675e-07  -1.2031059e-06  -1.3540506e-06  -1.2030749e-06  -7.6364589e-07  -3.1784387e-07  -3.5764213e-07  -3.7330181e-07  -3.5764213e-07  -3.1377771e-07
           15.5  -8.4492892e-06  -8.6587196e-06  -8.4493693e-06  -7.9022195e-07   -1.193634e-06  -1.3466519e-06  -1.1936063e-06  -7.4791817e-07  -3.0467586e-07    -3.44812e-07  -3.6061888e-07    -3.44812e-07  -3.0058221e-07
          15.75  -8.5298423e-06   -8.733499e-06  -8.5299234e-06  -7.7455382e-07  -1.1836791e-06  -1.3387849e-06  -1.1836529e-06  -7.3163691e-07  -2.9115269e-07  -3.3161894e-07   -3.475691e-07  -3.3161894e-07  -2.8702888e-07
             16  -8.6120951e-06  -8.8096999e-06  -8.6121751e-06  -7.5955712e-07  -1.1744506e-06   -1.331657e-06  -1.1744241e-06  -7.1601742e-07  -2.7794426e-07  -3.1874882e-07  -3.3484297e-07  -3.1874882e-07  -2.7378513e-07
          16.25  -8.6946649e-06  -8.8859945e-06  -8.6946988e-06  -7.4429504e-07   -1.164985e-06  -1.3242936e-06  -1.1649424e-06  -7.0009846e-07  -2.6455879e-07  -3.0569175e-07  -3.2192668e-07  -3.0569175e-07  -2.6036234e-07
           16.5  -8.7792697e-06  -8.9641787e-06  -8.7793111e-06  -7.2937567e-07   -1.155999e-06  -1.3174547e-06  -1.1559163e-06  -6.8444318e-07  -2.5149048e-07  -2.9298375e-07  -3.0936737e-07  -2.9298375e-07  -2.4722624e-07
          16.75  -8.8649933e-06  -9.0432344e-06  -8.8650344e-06  -7.1391926e-07    -1.14657e-06  -1.3102226e-06   -1.146535e-06  -6.6843219e-07  -2.3757645e-07  -2.7942469e-07  -2.9595878e-07  -2.7942469e-07  -2.3329916e-07
             17   -8.952502e-06  -9.1238639e-06  -8.9525424e-06  -6.9911151e-07  -1.1378641e-06  -1.3037267e-06  -1.1378284e-06  -6.5296202e-07  -2.2417104e-07  -2.6639594e-07  -2.8308604e-07  -2.6639594e-07  -2.1985544e-07
          17.25  -9.0407595e-06  -9.2050814e-06  -9.0407998e-06  -6.8369988e-07  -1.1286576e-06  -1.2967688e-06   -1.128624e-06  -6.3687994e-07   -2.103026e-07  -2.5291324e-07  -2.6976446e-07  -2.5291324e-07  -2.0595017e-07
           17.5  -9.1300154e-06  -9.2869827e-06  -9.1300501e-06   -6.689729e-07  -1.1201586e-06  -1.2905194e-06  -1.1201206e-06  -6.2146733e-07  -1.9677271e-07  -2.3978093e-07  -2.5680146e-07  -2.3978093e-07  -1.9237866e-07
          17.75  -9.2215669e-06  -9.3710851e-06  -9.2216419e-06  -6.5383167e-07  -1.1114468e-06  -1.2841528e-06   -1.111464e-06  -6.0572812e-07  -1.8281359e-07  -2.2629137e-07   -2.434736e-07  -2.2629137e-07  -1.7845125e-07
             18   -9.314762e-06  -9.4565529e-06  -9.3148545e-06  -6.3980689e-07  -1.1039259e-06  -1.2789945e-06  -1.1039705e-06   -5.910411e-07  -1.6976087e-07   -2.137219e-07  -2.3108687e-07   -2.137219e-07  -1.6537865e-07
          18.25   -9.408254e-06   -9.542073e-06  -9.4083579e-06  -6.2483666e-07  -1.0954523e-06  -1.2728454e-06  -1.0954695e-06  -5.7531644e-07  -1.5547179e-07  -1.9982812e-07  -2.1740062e-07  -1.9982812e-07  -1.5101887e-07
           18.5  -9.5043551e-06  -9.6299658e-06  -9.5044585e-06  -6.1088867e-07  -1.0881605e-06  -1.2679483e-06   -1.088178e-06  -5.6064153e-07  -1.4194887e-07  -1.8677853e-07   -2.045576e-07  -1.8677853e-07  -1.3745123e-07
          18.75  -9.6010415e-06   -9.718259e-06   -9.601142e-06  -5.9701253e-07  -1.0809825e-06  -1.2631772e-06   -1.081002e-06  -5.4603565e-07  -1.2842023e-07  -1.7373086e-07  -1.9171588e-07  -1.7373086e-07  -1.2387907e-07
             19  -9.6985738e-06  -9.8071568e-06  -9.6986742e-06  -5.8315494e-07  -1.0738892e-06  -1.2585061e-06  -1.0739103e-06    -5.31439e-07  -1.1481543e-07  -1.6060801e-07  -1.7879256e-07  -1.6060801e-07  -1.1022828e-07
          19.25  -9.7967516e-06  -9.8965429e-06    -9.79685e-06  -5.6876161e-07  -1.0663564e-06  -1.2534248e-06  -1.0663775e-06  -5.1629178e-07   -1.007855e-07  -1.4705484e-07   -1.654275e-07  -1.4705484e-07  -9.6151373e-08
           19.5   -9.897271e-06  -9.9880538e-06  -9.8973497e-06  -5.5510535e-07  -1.0596672e-06  -1.2492165e-06  -1.0596793e-06  -5.0184872e-07  -8.7051887e-08  -1.3380646e-07  -1.5237523e-07  -1.3380646e-07  -8.2350373e-08
          19.75   -9.998332e-06   -1.007993e-05  -9.9983481e-06  -5.4123679e-07  -1.0528345e-06  -1.2448869e-06  -1.0528345e-06   -4.871698e-07  -7.3129356e-08  -1.2037606e-07  -1.3914743e-07  -1.2037606e-07  -6.8352045e-08
             20  -1.0100872e-05  -1.0173139e-05  -1.0100893e-05  -5.2772656e-07  -1.0464823e-06  -1.2410774e-06  -1.0464544e-06  -4.7281411e-07  -5.9479882e-08  -1.0724091e-07   -1.262172e-07  -1.0724091e-07  -5.4617219e-08
          20.25  -1.0204338e-05  -1.0267074e-05  -1.0204316e-05  -5.1432055e-07  -1.0402796e-06  -1.2374103e-06  -1.0402296e-06  -4.5858607e-07  -4.5594998e-08  -9.3870421e-08  -1.1307293e-07  -9.3870421e-08  -4.0637954e-08
           20.5  -1.0308597e-05  -1.0361633e-05  -1.0308571e-05  -5.0078016e-07  -1.0340277e-06  -1.2337413e-06  -1.0339818e-06  -4.4424884e-07  -3.1491816e-08  -8.0319203e-08  -9.9752483e-08  -8.0319203e-08  -2.6483456e-08
          20.75  -1.0414549e-05  -1.0457709e-05  -1.0414544e-05  -4.8760449e-07  -1.0282636e-06  -1.2306024e-06  -1.0282312e-06   -4.302755e-07  -1.7452172e-08  -6.6864581e-08  -8.6543564e-08  -6.6864581e-08  -1.2397934e-08
             21   -1.052076e-05   -1.055386e-05  -1.0520725e-05  -4.7412786e-07  -1.0222567e-06  -1.2272655e-06  -1.0222739e-06  -4.1604707e-07  -3.1257501e-09  -5.3169571e-08  -7.3086373e-08  -5.3169571e-08   1.9062879e-09
          21.25  -1.0628461e-05  -1.0651374e-05  -1.0628487e-05  -4.6114644e-07  -1.0167896e-06  -1.2244372e-06   -1.016805e-06  -4.0222974e-07    1.125688e-08  -3.9385982e-08  -5.9593901e-08  -3.9385982e-08   1.6341412e-08
           21.5  -1.0736673e-05  -1.0749181e-05  -1.0736663e-05   -4.484382e-07   -1.011668e-06  -1.2219711e-06  -1.0116473e-06   -3.886028e-07   2.5371791e-08  -2.5857466e-08  -4.6382031e-08  -2.5857466e-08   3.0572013e-08
          21.75  -1.0845428e-05  -1.0847409e-05  -1.0845429e-05  -4.3592253e-07   -1.006809e-06  -1.2197938e-06  -1.0067734e-06  -3.7521522e-07   3.9413847e-08  -1.2448797e-08  -3.3287678e-08  -1.2448797e-08   4.4690979e-08
             22  -1.0956373e-05   -1.094767e-05  -1.0956386e-05  -4.2407816e-07  -1.0027521e-06  -1.2184704e-06  -1.0027294e-06  -3.6253006e-07   5.3313186e-08   7.5714857e-10   -2.039825e-08   7.5714857e-10   5.8622456e-08
          22.25  -1.1067764e-05  -1.1048266e-05  -1.1067787e-05  -4.1204665e-07  -9.9860092e-07  -1.2170885e-06  -9.9860824e-07  -3.4966991e-07   6.7398492e-08   1.4144697e-08  -7.3135714e-09   1.4144697e-08    7.273959e-08
           22.5  -1.1179769e-05   -1.114936e-05   -1.117978e-05  -3.9993956e-07  -9.9442273e-07  -1.2156791e-06   -9.944424e-07  -3.3669778e-07   8.1750981e-08   2.7834986e-08    6.085052e-09   2.7834986e-08   8.7160618e-08
          22.75  -1.1292402e-05  -1.1250999e-05  -1.1292415e-05  -3.8806728e-07  -9.9055124e-07   -1.214594e-06  -9.9057179e-07  -3.2392967e-07   9.5996738e-08   4.1410891e-08   1.9390561e-08   4.1410891e-08   1.0147356e-07
             23  -1.1406112e-05  -1.1353592e-05  -1.1406126e-05  -3.7651877e-07  -9.8708923e-07  -1.2139425e-06  -9.8711121e-07  -3.1147549e-07   1.1022132e-07   5.4942751e-08   3.2655523e-08   5.4942751e-08   1.1576621e-07
          23.25  -1.1520019e-05  -1.1456353e-05  -1.1520128e-05  -3.6484148e-07  -9.8357259e-07   -1.213254e-06  -9.8360014e-07  -2.9890989e-07   1.2461205e-07    6.863875e-08   4.6092155e-08    6.863875e-08   1.3022727e-07
           23.5  -1.1635579e-05  -1.1560627e-05  -1.1635801e-05  -3.5407718e-07  -9.8103476e-07  -1.2135806e-06  -9.8108432e-07  -2.8723709e-07   1.3873503e-07   8.1980738e-08   5.9166582e-08   8.1980738e-08   1.4434897e-07
          23.75   -1.175119e-05   -1.166479e-05  -1.1751317e-05  -3.4287305e-07  -9.7817679e-07  -1.2135971e-06  -9.7822279e-07  -2.7510947e-07   1.5321774e-07   9.5736763e-08   7.2626715e-08   9.5736763e-08   1.5891805e-07
             24  -1.1867638e-05  -1.1769715e-05  -1.1867767e-05  -3.3216508e-07  -9.7586127e-07  -1.2141759e-06  -9.7590886e-07  -2.6345514e-07   1.6755453e-07   1.0931231e-07   8.5888288e-08   1.0931231e-07   1.7332896e-07
          24.25  -1.1984209e-05  -1.1874671e-05  -1.1984336e-05  -3.2159242e-07  -9.7372768e-07  -1.2149469e-06   -9.737758e-07  -2.5192745e-07    1.819229e-07   1.2290173e-07    9.912181e-08   1.2290173e-07    1.877729e-07
           24.5  -1.2101391e-05  -1.1980132e-05  -1.2101515e-05  -3.1156382e-07   -9.721859e-07  -1.2163196e-06  -9.7223487e-07  -2.4093726e-07   1.9609909e-07   1.3627472e-07   1.1208494e-07   1.3627472e-07   2.0202638e-07
          24.75  -1.2219127e-05   -1.208604e-05  -1.2219226e-05  -3.0189585e-07   -9.710617e-07  -1.2181146e-06  -9.7108792e-07  -2.3025468e-07   2.1020631e-07   1.4957233e-07   1.2493379e-07   1.4957233e-07   2.1623292e-07
             25  -1.2338465e-05  -1.2193501e-05  -1.2338563e-05  -2.9283098e-07  -9.7064744e-07  -1.2206594e-06   -9.706741e-07  -2.2020618e-07   2.2416409e-07   1.6267135e-07   1.3757711e-07   1.6267135e-07   2.3027302e-07
          25.25  -1.2457769e-05  -1.2300879e-05  -1.2457864e-05  -2.8378181e-07   -9.703008e-07   -1.223283e-06  -9.7032845e-07  -2.1016648e-07   2.3826866e-07   1.7590264e-07   1.5037113e-07   1.7590264e-07   2.4446069e-07
           25.5  -1.2577665e-05  -1.2408791e-05  -1.2577759e-05  -2.7495135e-07  -9.7025057e-07  -1.2262208e-06  -9.7027816e-07  -2.0033273e-07   2.5242371e-07   1.8918156e-07   1.6327422e-07   1.8918156e-07   2.5870196e-07
          25.75  -1.2697991e-05  -1.2517099e-05  -1.2698083e-05  -2.6619424e-07  -9.7034648e-07  -1.2293228e-06  -9.7037427e-07  -1.9056288e-07   2.6670503e-07   2.0258077e-07   1.7635322e-07   2.0258077e-07   2.7307082e-07
             26  -1.2818194e-05  -1.2625245e-05   -1.281832e-05  -2.5749401e-07  -9.7054552e-07  -1.2325399e-06  -9.7057891e-07  -1.8085531e-07   2.8105115e-07   2.1608338e-07   1.8957663e-07   2.1608338e-07   2.8756415e-07
          26.25  -1.2938317e-05  -1.2733267e-05  -1.2938441e-05  -2.4911182e-07  -9.7107735e-07  -1.2360847e-06  -9.7111357e-07  -1.7145432e-07   2.9536949e-07   2.2950512e-07   2.0278017e-07   2.2950512e-07   3.0197023e-07
           26.5  -1.3059906e-05  -1.2842712e-05  -1.3060032e-05  -2.4135102e-07  -9.7232896e-07   -1.240375e-06  -9.7236519e-07  -1.6265587e-07    3.095508e-07   2.4276208e-07   2.1587756e-07   2.4276208e-07   3.1624615e-07
          26.75  -1.3180894e-05  -1.2951521e-05  -1.3181018e-05  -2.3351697e-07  -9.7353454e-07   -1.244621e-06  -9.7357163e-07  -1.5378069e-07   3.2390958e-07     2.56187e-07   2.2911458e-07     2.56187e-07   3.3069855e-07
             27  -1.3302254e-05  -1.3060654e-05  -1.3302338e-05  -2.2596902e-07  -9.7506764e-07  -1.2491867e-06  -9.7506807e-07  -1.4511533e-07   3.3830291e-07   2.6965783e-07   2.4230047e-07   2.6965783e-07   3.4523118e-07
          27.25  -1.3424128e-05  -1.3170277e-05  -1.3424214e-05  -2.1888531e-07  -9.7714483e-07  -1.2543304e-06  -9.7714779e-07  -1.3697562e-07   3.5261634e-07   2.8298391e-07   2.5529737e-07   2.8298391e-07   3.5963914e-07
           27.5  -1.3545711e-05  -1.3279575e-05  -1.3545794e-05  -2.1183563e-07  -9.7929504e-07  -1.2595518e-06  -9.7930004e-07  -1.2886314e-07    3.670845e-07   2.9645464e-07   2.6842681e-07   2.9645464e-07   3.7420585e-07
          27.75  -1.3667681e-05  -1.3389228e-05  -1.3667797e-05  -2.0593723e-07  -9.8259205e-07  -1.2659182e-06  -9.8262533e-07  -1.2194727e-07   3.8102453e-07   3.0935474e-07     2.81045e-07   3.0935474e-07    3.882127e-07
             28  -1.3789934e-05  -1.3499113e-05  -1.3790006e-05  -2.0009815e-07  -9.8599736e-07  -1.2723945e-06  -9.8603105e-07  -1.1502247e-07   3.9513322e-07   3.2242568e-07   2.9386357e-07   3.2242568e-07   4.0241639e-07
          28.25  -1.3912251e-05  -1.3609092e-05  -1.3912323e-05  -1.9466331e-07  -9.8983218e-07  -1.2792985e-06  -9.8986936e-07  -1.0851171e-07   4.0919805e-07   3.3544891e-07   3.0668971e-07   3.3544891e-07     4.16583e-07
           28.5  -1.4035302e-05  -1.3719805e-05  -1.4035373e-05  -1.8977531e-07  -9.9426971e-07  -1.2868144e-06  -9.9430827e-07  -1.0253492e-07   4.2315976e-07   3.4835016e-07   3.1945009e-07   3.4835016e-07   4.3064969e-07
          28.75  -1.4158317e-05  -1.3830489e-05  -1.4158387e-05  -1.8505868e-07  -9.9890936e-07  -1.2945329e-06  -9.9894954e-07  -9.6723865e-08   4.3723363e-07   3.6135273e-07   3.3239553e-07   3.6135273e-07   4.4483194e-07
             29  -1.4282055e-05  -1.3941902e-05  -1.4282141e-05  -1.8085004e-07  -1.0041033e-06   -1.302807e-06   -1.004128e-06  -9.1373165e-08   4.5122569e-07     3.74219e-07   3.4495329e-07     3.74219e-07   4.5898659e-07
          29.25  -1.4405354e-05  -1.4052926e-05  -1.4405517e-05  -1.7674841e-07  -1.0094351e-06    -1.31122e-06  -1.0094552e-06  -8.6143728e-08   4.6535019e-07   3.8706642e-07   3.5737989e-07   3.8706642e-07   4.7314848e-07
           29.5  -1.4528188e-05  -1.4163484e-05  -1.4528348e-05  -1.7278198e-07  -1.0148991e-06  -1.3197579e-06  -1.0149192e-06  -8.1064412e-08   4.7958396e-07   4.0009264e-07   3.6993768e-07   4.0009264e-07   4.8749926e-07
          29.75  -1.4651031e-05  -1.4274087e-05  -1.4651189e-05  -1.6941042e-07  -1.0209424e-06  -1.3288604e-06  -1.0209628e-06  -7.6579472e-08   4.9367791e-07   4.1296944e-07   3.8234714e-07   4.1296944e-07   5.0171279e-07
             30  -1.4774045e-05  -1.4384876e-05  -1.4774193e-05  -1.6645519e-07  -1.0274197e-06  -1.3383876e-06  -1.0274239e-06   -7.247287e-08   5.0775835e-07   4.2582992e-07   3.9467515e-07   4.2582992e-07   5.1593486e-07
          30.25   -1.489701e-05  -1.4495645e-05  -1.4897158e-05  -1.6401177e-07  -1.0344044e-06  -1.3484176e-06  -1.0344095e-06  -6.8910046e-08   5.2174964e-07   4.3857922e-07   4.0682062e-07   4.3857922e-07   5.3004859e-07
           30.5  -1.5020144e-05  -1.4606608e-05  -1.5020289e-05   -1.622283e-07  -1.0420466e-06  -1.3590934e-06  -1.0420523e-06  -6.6003802e-08   5.3561125e-07   4.5117841e-07   4.1881279e-07   4.5117841e-07   5.4403575e-07
          30.75  -1.5143143e-05  -1.4717451e-05  -1.5143227e-05  -1.6070121e-07  -1.0499553e-06  -1.3700473e-06  -1.0500001e-06  -6.3421166e-08   5.4958425e-07   4.6391216e-07   4.3097518e-07   4.6391216e-07   5.5817417e-07
             31  -1.5266767e-05  -1.4828983e-05  -1.5266886e-05  -1.5995077e-07  -1.0586786e-06  -1.3818171e-06  -1.0587668e-06  -6.1612146e-08   5.6340974e-07   4.7640265e-07   4.4287793e-07   4.7640265e-07   5.7207344e-07
          31.25  -1.5389655e-05  -1.4939828e-05  -1.5389805e-05  -1.5951492e-07  -1.0676555e-06  -1.3937781e-06  -1.0677167e-06  -6.0004097e-08    5.771789e-07   4.8882732e-07   4.5457839e-07   4.8882732e-07   5.8592582e-07
           31.5  -1.5512612e-05  -1.5050784e-05  -1.5512759e-05  -1.5965369e-07  -1.0771822e-06  -1.4062869e-06  -1.0772438e-06  -5.9011401e-08   5.9092983e-07   5.0123434e-07    4.660163e-07   5.0123434e-07   5.9981109e-07
          31.75  -1.5634864e-05  -1.5161109e-05  -1.5635008e-05  -1.6005507e-07  -1.0869231e-06  -1.4189836e-06  -1.0869849e-06  -5.8284184e-08   6.0473485e-07    5.136515e-07   4.7742015e-07    5.136515e-07    6.137534e-07
             32  -1.5757437e-05  -1.5271811e-05  -1.5757581e-05  -1.6112063e-07  -1.0973046e-06     -1.4323e-06  -1.0973536e-06  -5.8195961e-08   6.1840935e-07   5.2586478e-07   4.8859702e-07   5.2586478e-07   6.2757824e-07
          32.25  -1.5879988e-05  -1.5382552e-05  -1.5880128e-05  -1.6275667e-07  -1.1082306e-06  -1.4461459e-06  -1.1082794e-06  -5.8702969e-08   6.3198484e-07   5.3787687e-07   4.9948162e-07   5.3787687e-07   6.4130066e-07
           32.5  -1.6002513e-05  -1.5493333e-05  -1.6002658e-05  -1.6487607e-07  -1.1196153e-06  -1.4604327e-06  -1.1196651e-06  -5.9696305e-08   6.4557838e-07    5.498625e-07   5.1030271e-07    5.498625e-07    6.550342e-07
          32.75  -1.6124346e-05  -1.5603498e-05  -1.6124486e-05  -1.6713653e-07  -1.1311024e-06  -1.4747996e-06  -1.1311505e-06    -6.08262e-08   6.5933701e-07   5.6203348e-07   5.2114688e-07   5.6203348e-07   6.6894951e-07