# Force and moment coefficients
# dragDir       : (1.00000000e+00 0.00000000e+00 0.00000000e+00)
# sideDir       : (0.00000000e+00 0.00000000e+00 -1.00000000e+00)
# liftDir       : (0.00000000e+00 1.00000000e+00 0.00000000e+00)
# rollAxis      : (1.00000000e+00 0.00000000e+00 0.00000000e+00)
# pitchAxis     : (0.00000000e+00 0.00000000e+00 -1.00000000e+00)
# yawAxis       : (0.00000000e+00 1.00000000e+00 0.00000000e+00)
# magUInf       : 1.12500000e-02
# lRef          : 1.00000000e-01
# Aref          : 1.00000000e-02
# CofR          : (0.00000000e+00 0.00000000e+00 0.00000000e+00)
#
# Time          	Cd              	Cd(f)           	Cd(r)           	Cl              	Cl(f)           	Cl(r)           	CmPitch         	CmRoll          	CmYaw           	Cs              	Cs(f)           	Cs(r)           
0.25            	9.73938522e+01	4.86969261e+01	4.86969261e+01	-9.45392491e-02	-2.43581416e+02	2.43486877e+02	-2.43534146e+02	1.39593529e-09	-4.71419869e-10	4.71543370e-10	-2.35648184e-10	7.07191554e-10
0.5             	-3.72623064e+01	-1.86311532e+01	-1.86311532e+01	1.49387538e-02	9.31644213e+01	-9.31494826e+01	9.31569520e+01	1.85020937e-09	-6.08864010e-10	6.17639483e-10	-3.00044269e-10	9.17683752e-10
0.75            	5.91957981e+00	2.95978991e+00	2.95978990e+00	-1.57865493e-02	-1.48137447e+01	1.47979581e+01	-1.48058514e+01	1.84377502e-09	-5.98102091e-10	6.12896063e-10	-2.91654060e-10	9.04550123e-10
1               	4.15834774e+00	2.07917387e+00	2.07917387e+00	-1.17238211e-02	-1.04089380e+01	1.03972142e+01	-1.04030761e+01	1.79367401e-09	-5.75074959e-10	5.94585096e-10	-2.77782411e-10	8.72367507e-10
1.25            	3.82929914e+00	1.91464957e+00	1.91464957e+00	-1.26235096e-02	-9.58734448e+00	9.57472097e+00	-9.58103273e+00	1.75836602e-09	-5.58299966e-10	5.81752781e-10	-2.67423576e-10	8.49176357e-10
1.5             	3.53142357e+00	1.76571178e+00	1.76571178e+00	-1.30267028e-02	-8.84328054e+00	8.83025383e+00	-8.83676719e+00	1.75650014e-09	-5.52995967e-10	5.80336682e-10	-2.62827626e-10	8.43164308e-10
1.75            	3.29617579e+00	1.64808790e+00	1.64808789e+00	-1.26895954e-02	-8.25455775e+00	8.24186815e+00	-8.24821295e+00	1.78439404e-09	-5.57546532e-10	5.88970822e-10	-2.63061121e-10	8.52031943e-10
2               	3.11734080e+00	1.55867040e+00	1.55867040e+00	-1.38770398e-02	-7.80877190e+00	7.79489486e+00	-7.80183338e+00	1.83095723e-09	-5.68082903e-10	6.03856967e-10	-2.66154419e-10	8.70011387e-10
2.25            	2.98254376e+00	1.49127188e+00	1.49127188e+00	-1.45792860e-02	-7.47261093e+00	7.45803164e+00	-7.46532128e+00	1.88700089e-09	-5.81453106e-10	6.21883838e-10	-2.70511187e-10	8.92395025e-10
2.5             	2.87221958e+00	1.43610979e+00	1.43610979e+00	-1.51964578e-02	-7.19737796e+00	7.18218150e+00	-7.18977973e+00	1.94656483e-09	-5.95625117e-10	6.41043930e-10	-2.75103152e-10	9.16147082e-10
2.75            	2.77957626e+00	1.38978813e+00	1.38978813e+00	-1.59516774e-02	-6.96647522e+00	6.95052354e+00	-6.95849938e+00	2.00723918e-09	-6.09731859e-10	6.60526066e-10	-2.79468826e-10	9.39994892e-10
3               	2.70031642e+00	1.35015821e+00	1.35015821e+00	-1.65764819e-02	-6.76894364e+00	6.75236715e+00	-6.76065540e+00	2.06868044e-09	-6.23596649e-10	6.80214107e-10	-2.83489595e-10	9.63703702e-10
3.25            	2.63131864e+00	1.31565932e+00	1.31565932e+00	-1.68190134e-02	-6.59646887e+00	6.57964986e+00	-6.58805936e+00	2.13086920e-09	-6.37172054e-10	7.00107197e-10	-2.87118456e-10	9.87225653e-10
3.5             	2.57143969e+00	1.28571985e+00	1.28571984e+00	-1.77966116e-02	-6.44780961e+00	6.43001299e+00	-6.43891130e+00	2.19386226e-09	-6.50442140e-10	7.20233129e-10	-2.90325576e-10	1.01055870e-09
3.75            	2.51796925e+00	1.25898463e+00	1.25898462e+00	-1.84456068e-02	-6.31476590e+00	6.29632029e+00	-6.30554310e+00	2.25770850e-09	-6.63404078e-10	7.40618512e-10	-2.93094822e-10	1.03371333e-09
4               	2.47143014e+00	1.23571507e+00	1.23571507e+00	-1.94341904e-02	-6.19933701e+00	6.17990282e+00	-6.18961992e+00	2.32246757e-09	-6.76057935e-10	7.61293136e-10	-2.95411367e-10	1.05670450e-09
4.25            	2.42865304e+00	1.21432652e+00	1.21432652e+00	-2.02297515e-02	-6.09314123e+00	6.07291148e+00	-6.08302636e+00	2.38820776e-09	-6.88402124e-10	7.82287661e-10	-2.97258294e-10	1.07954596e-09
4.5             	2.38972048e+00	1.19486024e+00	1.19486024e+00	-2.04623120e-02	-5.99606406e+00	5.97560175e+00	-5.98583291e+00	2.45498369e-09	-7.00436373e-10	8.03626969e-10	-2.98622888e-10	1.10224986e-09
4.75            	2.35341244e+00	1.17670622e+00	1.17670622e+00	-2.12102710e-02	-5.90600732e+00	5.88479704e+00	-5.89540218e+00	2.52283961e-09	-7.12165489e-10	8.25332534e-10	-2.99499222e-10	1.12483176e-09
5               	2.31965106e+00	1.15982553e+00	1.15982553e+00	-2.19408528e-02	-5.82227354e+00	5.80033269e+00	-5.81130312e+00	2.59178596e-09	-7.23587084e-10	8.47411963e-10	-2.99881102e-10	1.14729307e-09
5.25            	2.28813335e+00	1.14406668e+00	1.14406667e+00	-2.27107565e-02	-5.74425467e+00	5.72154392e+00	-5.73289930e+00	2.66180736e-09	-7.34694180e-10	8.69863197e-10	-2.99762581e-10	1.16962578e-09
5.5             	2.25838370e+00	1.12919186e+00	1.12919185e+00	-2.33916875e-02	-5.67051322e+00	5.64712153e+00	-5.65881738e+00	2.73284840e-09	-7.45475773e-10	8.92666046e-10	-2.99142749e-10	1.19180880e-09
5.75            	2.23055428e+00	1.11527715e+00	1.11527714e+00	-2.41621205e-02	-5.60166345e+00	5.57750133e+00	-5.58958239e+00	2.80485633e-09	-7.55919596e-10	9.15806157e-10	-2.98016517e-10	1.21382267e-09
6               	2.20437966e+00	1.10218983e+00	1.10218982e+00	-2.49718065e-02	-5.53704205e+00	5.51207024e+00	-5.52455614e+00	2.87765928e-09	-7.66017860e-10	9.39227614e-10	-2.96404053e-10	1.23563167e-09
6.25            	2.17958007e+00	1.08979004e+00	1.08979003e+00	-2.56806767e-02	-5.47568520e+00	5.45000452e+00	-5.46284486e+00	2.95107739e-09	-7.75764649e-10	9.62873531e-10	-2.94327884e-10	1.25720141e-09
6.5             	2.15589859e+00	1.07794930e+00	1.07794929e+00	-2.64755777e-02	-5.41727963e+00	5.39080405e+00	-5.40404184e+00	3.02487714e-09	-7.85150949e-10	9.86666814e-10	-2.91817542e-10	1.27848436e-09
6.75            	2.13358989e+00	1.06679495e+00	1.06679494e+00	-2.73656414e-02	-5.36237409e+00	5.33500844e+00	-5.34869126e+00	3.09878290e-09	-7.94168732e-10	1.01051686e-09	-2.88910301e-10	1.29942716e-09
7               	2.11226987e+00	1.05613494e+00	1.05613493e+00	-2.83381978e-02	-5.31002501e+00	5.28168681e+00	-5.29585591e+00	3.17247566e-09	-8.02813889e-10	1.03431906e-09	-2.85654361e-10	1.31997342e-09
7.25            	2.09196092e+00	1.04598046e+00	1.04598046e+00	-2.92719049e-02	-5.26013574e+00	5.23086384e+00	-5.24549979e+00	3.24557753e-09	-8.11084525e-10	1.05794664e-09	-2.82111205e-10	1.34005785e-09
7.5             	2.07269026e+00	1.03634513e+00	1.03634513e+00	-3.01091408e-02	-5.21275067e+00	5.18264153e+00	-5.19769610e+00	3.31767970e-09	-8.18978642e-10	1.08126285e-09	-2.78347215e-10	1.35961007e-09
7.75            	2.05464824e+00	1.02732412e+00	1.02732412e+00	-3.10354564e-02	-5.16851302e+00	5.13747756e+00	-5.15299529e+00	3.38839421e-09	-8.26502634e-10	1.10414085e-09	-2.74432211e-10	1.37857306e-09
8               	2.03763885e+00	1.01881943e+00	1.01881942e+00	-3.20012000e-02	-5.12689867e+00	5.09489747e+00	-5.11089807e+00	3.45733493e-09	-8.33668143e-10	1.12645507e-09	-2.70440607e-10	1.39689568e-09
8.25            	2.02183850e+00	1.01091926e+00	1.01091925e+00	-3.30252003e-02	-5.08836001e+00	5.05533481e+00	-5.07184741e+00	3.52412672e-09	-8.40491034e-10	1.14808346e-09	-2.66449306e-10	1.41453276e-09
8.5             	2.00715980e+00	1.00357990e+00	1.00357990e+00	-3.39583396e-02	-5.05250601e+00	5.01854767e+00	-5.03552684e+00	3.58841105e-09	-8.46988492e-10	1.16890884e-09	-2.62534072e-10	1.43144291e-09
8.75            	1.99332618e+00	9.96663095e-01	9.96663088e-01	-3.50571842e-02	-5.01895333e+00	4.98389615e+00	-5.00142474e+00	3.64986852e-09	-8.53180614e-10	1.18882670e-09	-2.58767263e-10	1.44759397e-09
9               	1.98060068e+00	9.90300342e-01	9.90300335e-01	-3.60731004e-02	-4.98807739e+00	4.95200429e+00	-4.97004084e+00	3.70823159e-09	-8.59089565e-10	1.20774953e-09	-2.55214800e-10	1.46296433e-09
9.25            	1.96880906e+00	9.84404535e-01	9.84404527e-01	-3.72376612e-02	-4.95968199e+00	4.92244433e+00	-4.94106316e+00	3.76329506e-09	-8.64739325e-10	1.22561038e-09	-2.51934133e-10	1.47754452e-09
9.5             	1.95807488e+00	9.79037444e-01	9.79037436e-01	-3.83150371e-02	-4.93383766e+00	4.89552262e+00	-4.91468014e+00	3.81492299e-09	-8.70154505e-10	1.24236522e-09	-2.48971897e-10	1.49133711e-09
9.75            	1.94818652e+00	9.74093264e-01	9.74093256e-01	-3.95209782e-02	-4.91023601e+00	4.87071503e+00	-4.89047552e+00	3.86304582e-09	-8.75361267e-10	1.25799198e-09	-2.46365274e-10	1.50435726e-09
10              	1.93919008e+00	9.69595042e-01	9.69595034e-01	-4.06760174e-02	-4.88882190e+00	4.84814588e+00	-4.86848389e+00	3.90765991e-09	-8.80385808e-10	1.27249045e-09	-2.44140582e-10	1.51663103e-09
10.25           	1.93088883e+00	9.65444418e-01	9.65444410e-01	-4.19268538e-02	-4.86923917e+00	4.82731232e+00	-4.84827574e+00	3.94882346e-09	-8.85254288e-10	1.28588069e-09	-2.42313944e-10	1.52819463e-09
10.5            	1.92337715e+00	9.61688580e-01	9.61688572e-01	-4.32361940e-02	-4.85167828e+00	4.80844208e+00	-4.83006018e+00	3.98665044e-09	-8.89991532e-10	1.29820132e-09	-2.40890872e-10	1.53909219e-09
10.75           	1.91643748e+00	9.58218744e-01	9.58218736e-01	-4.43940219e-02	-4.83542322e+00	4.79102919e+00	-4.81322620e+00	4.02129972e-09	-8.94620270e-10	1.30950561e-09	-2.39867466e-10	1.54937307e-09
11              	1.91027045e+00	9.55135228e-01	9.55135220e-01	-4.55639929e-02	-4.82110977e+00	4.77554578e+00	-4.79832778e+00	4.05296464e-09	-8.99161240e-10	1.31985796e-09	-2.39232260e-10	1.55909022e-09
11.25           	1.90469994e+00	9.52349974e-01	9.52349966e-01	-4.66956477e-02	-4.80824052e+00	4.76154487e+00	-4.78489270e+00	4.08186250e-09	-9.03632996e-10	1.32933045e-09	-2.38967769e-10	1.56829822e-09
11.5            	1.89972111e+00	9.49860558e-01	9.49860549e-01	-4.79237740e-02	-4.79694736e+00	4.74902359e+00	-4.77298547e+00	4.10822861e-09	-9.08051973e-10	1.33800098e-09	-2.39051484e-10	1.57705246e-09
11.75           	1.89525329e+00	9.47626649e-01	9.47626640e-01	-4.91632775e-02	-4.78693454e+00	4.73777126e+00	-4.76235290e+00	4.13230777e-09	-9.12432388e-10	1.34595054e-09	-2.39457119e-10	1.58540766e-09
12              	1.89128058e+00	9.45640292e-01	9.45640284e-01	-5.04997282e-02	-4.77825617e+00	4.72775644e+00	-4.75300631e+00	4.15434362e-09	-9.16786428e-10	1.35325964e-09	-2.40156606e-10	1.59341625e-09
12.25           	1.88767994e+00	9.43839976e-01	9.43839968e-01	-5.19502847e-02	-4.77061802e+00	4.71866774e+00	-4.74464288e+00	4.17457035e-09	-9.21124231e-10	1.36000537e-09	-2.41121544e-10	1.60112692e-09
12.5            	1.88421926e+00	9.42109636e-01	9.42109628e-01	-5.31810078e-02	-4.76317730e+00	4.70999630e+00	-4.73658680e+00	4.19320915e-09	-9.25453646e-10	1.36626038e-09	-2.42323457e-10	1.60858383e-09
12.75           	1.88124186e+00	9.40620933e-01	9.40620925e-01	-5.44701780e-02	-4.75697196e+00	4.70250178e+00	-4.72973687e+00	4.21046275e-09	-9.29780879e-10	1.37209117e-09	-2.43735297e-10	1.61582646e-09
13              	1.87839031e+00	9.39195161e-01	9.39195152e-01	-5.57442780e-02	-4.75105476e+00	4.69531048e+00	-4.72318262e+00	4.22651336e-09	-9.34110509e-10	1.37755734e-09	-2.45331841e-10	1.62288918e-09
13.25           	1.87564750e+00	9.37823752e-01	9.37823744e-01	-5.71069844e-02	-4.74547537e+00	4.68836839e+00	-4.71692188e+00	4.24152453e-09	-9.38445922e-10	1.38271226e-09	-2.47089792e-10	1.62980205e-09
13.5            	1.87318370e+00	9.36591855e-01	9.36591846e-01	-5.83266762e-02	-4.74049996e+00	4.68217328e+00	-4.71133662e+00	4.25564249e-09	-9.42789161e-10	1.38760348e-09	-2.48987419e-10	1.63659090e-09
13.75           	1.87092628e+00	9.35463143e-01	9.35463134e-01	-5.95699776e-02	-4.73606810e+00	4.67649813e+00	-4.70628312e+00	4.26899792e-09	-9.47141381e-10	1.39227336e-09	-2.51004700e-10	1.64327806e-09
14              	1.86880861e+00	9.34404308e-01	9.34404300e-01	-6.07964764e-02	-4.73196442e+00	4.67116794e+00	-4.70156618e+00	4.28170505e-09	-9.51503051e-10	1.39675872e-09	-2.53123689e-10	1.64988241e-09
14.25           	1.86678065e+00	9.33390329e-01	9.33390320e-01	-6.20867166e-02	-4.72815677e+00	4.66607005e+00	-4.69711341e+00	4.29386313e-09	-9.55874252e-10	1.40109144e-09	-2.55328532e-10	1.65641997e-09
14.5            	1.86493394e+00	9.32466976e-01	9.32466968e-01	-6.33384964e-02	-4.72476078e+00	4.66142228e+00	-4.69309153e+00	4.30555769e-09	-9.60254530e-10	1.40529877e-09	-2.57605145e-10	1.66290392e-09
14.75           	1.86314983e+00	9.31574918e-01	9.31574909e-01	-6.45949609e-02	-4.72153331e+00	4.65693835e+00	-4.68923583e+00	4.31686228e-09	-9.64643082e-10	1.40940397e-09	-2.59941100e-10	1.66934507e-09
15              	1.86149145e+00	9.30745728e-01	9.30745720e-01	-6.58568966e-02	-4.71862649e+00	4.65276959e+00	-4.68569804e+00	4.32784024e-09	-9.69038810e-10	1.41342689e-09	-2.62325367e-10	1.67575225e-09
15.25           	1.85989063e+00	9.29945321e-01	9.29945312e-01	-6.71312525e-02	-4.71587659e+00	4.64874533e+00	-4.68231096e+00	4.33854612e-09	-9.73440373e-10	1.41738447e-09	-2.64748139e-10	1.68213261e-09
15.5            	1.85826634e+00	9.29133174e-01	9.29133165e-01	-6.83508570e-02	-4.71301571e+00	4.64466485e+00	-4.67884028e+00	4.34902601e-09	-9.77846142e-10	1.42129084e-09	-2.67200722e-10	1.68849156e-09
15.75           	1.85681018e+00	9.28405092e-01	9.28405083e-01	-6.95738699e-02	-4.71057231e+00	4.64099844e+00	-4.67578537e+00	4.35931883e-09	-9.82254409e-10	1.42515777e-09	-2.69675523e-10	1.69483329e-09
16              	1.85532573e+00	9.27662867e-01	9.27662859e-01	-7.07863664e-02	-4.70805505e+00	4.63726869e+00	-4.67266187e+00	4.36945677e-09	-9.86663290e-10	1.42899479e-09	-2.72165897e-10	1.70116068e-09
16.25           	1.85387298e+00	9.26936496e-01	9.26936487e-01	-7.20220523e-02	-4.70563825e+00	4.63361619e+00	-4.66962722e+00	4.37946657e-09	-9.91070919e-10	1.43280962e-09	-2.74666111e-10	1.70747573e-09
16.5            	1.85243364e+00	9.26216826e-01	9.26216818e-01	-7.32374006e-02	-4.70323672e+00	4.62999932e+00	-4.66661802e+00	4.38937051e-09	-9.95475568e-10	1.43660853e-09	-2.77171305e-10	1.71377983e-09
16.75           	1.85106985e+00	9.25534928e-01	9.25534919e-01	-7.45033551e-02	-4.70103487e+00	4.62653151e+00	-4.66378319e+00	4.39918738e-09	-9.99875684e-10	1.44039667e-09	-2.79677349e-10	1.72007402e-09
17              	1.84981381e+00	9.24906908e-01	9.24906899e-01	-7.56489979e-02	-4.69905159e+00	4.62340259e+00	-4.66122709e+00	4.40893563e-09	-1.00426952e-09	1.44417914e-09	-2.82179946e-10	1.72635909e-09
17.25           	1.84852368e+00	9.24261842e-01	9.24261833e-01	-7.68558892e-02	-4.69701018e+00	4.62015429e+00	-4.65858224e+00	4.41862411e-09	-1.00865548e-09	1.44795786e-09	-2.84676552e-10	1.73263441e-09
17.5            	1.84718021e+00	9.23590110e-01	9.23590101e-01	-7.80951613e-02	-4.69487112e+00	4.61677596e+00	-4.65582354e+00	4.42825148e-09	-1.01303207e-09	1.45173142e-09	-2.87166361e-10	1.73889778e-09
17.75           	1.84590637e+00	9.22953189e-01	9.22953181e-01	-7.92539004e-02	-4.69282756e+00	4.61357366e+00	-4.65320061e+00	4.43782009e-09	-1.01739774e-09	1.45549965e-09	-2.89647917e-10	1.74514757e-09
18              	1.84461762e+00	9.22308815e-01	9.22308806e-01	-8.04182762e-02	-4.69074966e+00	4.61033138e+00	-4.65054052e+00	4.44734149e-09	-1.02175116e-09	1.45926551e-09	-2.92118406e-10	1.75138392e-09
18.25           	1.84331086e+00	9.21655435e-01	9.21655426e-01	-8.15821890e-02	-4.68862886e+00	4.60704667e+00	-4.64783777e+00	4.45682482e-09	-1.02609109e-09	1.46303120e-09	-2.94575488e-10	1.75760669e-09
18.5            	1.84201280e+00	9.21006405e-01	9.21006396e-01	-8.27226493e-02	-4.68649965e+00	4.60377700e+00	-4.64513833e+00	4.46627561e-09	-1.03041631e-09	1.46679776e-09	-2.97017430e-10	1.76381519e-09
18.75           	1.84064572e+00	9.20322865e-01	9.20322856e-01	-8.38424090e-02	-4.68419263e+00	4.60035022e+00	-4.64227142e+00	4.47569647e-09	-1.03472564e-09	1.47056522e-09	-2.99443032e-10	1.77000825e-09
19              	1.83935293e+00	9.19676470e-01	9.19676461e-01	-8.49917077e-02	-4.68209294e+00	4.59710123e+00	-4.63959708e+00	4.48508923e-09	-1.03901810e-09	1.47433347e-09	-3.01851362e-10	1.77618483e-09
19.25           	1.83802760e+00	9.19013806e-01	9.19013797e-01	-8.61395608e-02	-4.67989447e+00	4.59375491e+00	-4.63682469e+00	4.49445571e-09	-1.04329282e-09	1.47810242e-09	-3.04241611e-10	1.78234403e-09
19.5            	1.83673803e+00	9.18369020e-01	9.18369011e-01	-8.72440154e-02	-4.67774857e+00	4.59050456e+00	-4.63412656e+00	4.50379529e-09	-1.04754890e-09	1.48187119e-09	-3.06613304e-10	1.78848450e-09
19.75           	1.83545467e+00	9.17727339e-01	9.17727330e-01	-8.83251012e-02	-4.67559385e+00	4.58726875e+00	-4.63143130e+00	4.51310809e-09	-1.05178553e-09	1.48563920e-09	-3.08965928e-10	1.79460512e-09
20              	1.83415348e+00	9.17076742e-01	9.17076733e-01	-8.94156529e-02	-4.67340445e+00	4.58398879e+00	-4.62869662e+00	4.52239427e-09	-1.05600194e-09	1.48940586e-09	-3.11299012e-10	1.80070487e-09
20.25           	1.83288815e+00	9.16444079e-01	9.16444070e-01	-9.04939977e-02	-4.67128492e+00	4.58079093e+00	-4.62603793e+00	4.53165389e-09	-1.06019747e-09	1.49317064e-09	-3.13612150e-10	1.80678279e-09
20.5            	1.83158752e+00	9.15793766e-01	9.15793757e-01	-9.15612779e-02	-4.66906722e+00	4.57750594e+00	-4.62328658e+00	4.54088684e-09	-1.06437151e-09	1.49693294e-09	-3.15905041e-10	1.81283798e-09
20.75           	1.83028638e+00	9.15143192e-01	9.15143183e-01	-9.26024944e-02	-4.66682286e+00	4.57422036e+00	-4.62052161e+00	4.55009264e-09	-1.06852355e-09	1.50069209e-09	-3.18177507e-10	1.81886960e-09
21              	1.82896761e+00	9.14483812e-01	9.14483803e-01	-9.36437260e-02	-4.66453279e+00	4.57088907e+00	-4.61771093e+00	4.55927003e-09	-1.07265313e-09	1.50444716e-09	-3.20429547e-10	1.82487670e-09
21.25           	1.82761059e+00	9.13805300e-01	9.13805291e-01	-9.46596198e-02	-4.66212045e+00	4.56746083e+00	-4.61479064e+00	4.56842163e-09	-1.07675983e-09	1.50819853e-09	-3.22660561e-10	1.83085909e-09
21.5            	1.82629011e+00	9.13145059e-01	9.13145050e-01	-9.56958218e-02	-4.65982247e+00	4.56412665e+00	-4.61197456e+00	4.57755183e-09	-1.08084336e-09	1.51194724e-09	-3.24869743e-10	1.83681698e-09
21.75           	1.82492387e+00	9.12461941e-01	9.12461932e-01	-9.67255821e-02	-4.65740176e+00	4.56067618e+00	-4.60903897e+00	4.58665659e-09	-1.08490341e-09	1.51569150e-09	-3.27057659e-10	1.84274916e-09
22              	1.82361330e+00	9.11806653e-01	9.11806644e-01	-9.77098992e-02	-4.65507185e+00	4.55736195e+00	-4.60621690e+00	4.59573163e-09	-1.08893955e-09	1.51942946e-09	-3.29224819e-10	1.84865428e-09
22.25           	1.82231346e+00	9.11156734e-01	9.11156724e-01	-9.86820783e-02	-4.65275596e+00	4.55407388e+00	-4.60341492e+00	4.60477475e-09	-1.09295153e-09	1.52316002e-09	-3.31371519e-10	1.85453154e-09
22.5            	1.82101277e+00	9.10506392e-01	9.10506383e-01	-9.96338124e-02	-4.65041494e+00	4.55078112e+00	-4.60059803e+00	4.61378485e-09	-1.09693913e-09	1.52688246e-09	-3.33497897e-10	1.86038036e-09
22.75           	1.81974396e+00	9.09871984e-01	9.09871975e-01	-1.00565231e-01	-4.64813290e+00	4.54756767e+00	-4.59785029e+00	4.62276133e-09	-1.10090214e-09	1.53059623e-09	-3.35604027e-10	1.86620026e-09
23              	1.81846321e+00	9.09231611e-01	9.09231602e-01	-1.01472060e-01	-4.64579351e+00	4.54432145e+00	-4.59505748e+00	4.63170386e-09	-1.10484048e-09	1.53430093e-09	-3.37690010e-10	1.87199094e-09
23.25           	1.81719895e+00	9.08599479e-01	9.08599470e-01	-1.02365342e-01	-4.64348167e+00	4.54111633e+00	-4.59229900e+00	4.64061236e-09	-1.10875405e-09	1.53799623e-09	-3.39755937e-10	1.87775217e-09
23.5            	1.81591969e+00	9.07959852e-01	9.07959842e-01	-1.03248510e-01	-4.64112023e+00	4.53787172e+00	-4.58949598e+00	4.64948674e-09	-1.11264283e-09	1.54168184e-09	-3.41801913e-10	1.88348375e-09
23.75           	1.81466258e+00	9.07331294e-01	9.07331285e-01	-1.04109560e-01	-4.63879089e+00	4.53468133e+00	-4.58673611e+00	4.65832689e-09	-1.11650679e-09	1.54535745e-09	-3.43828065e-10	1.88918552e-09
24              	1.81338486e+00	9.06692434e-01	9.06692425e-01	-1.04955236e-01	-4.63639334e+00	4.53143810e+00	-4.58391572e+00	4.66713354e-09	-1.12034593e-09	1.54902310e-09	-3.45834380e-10	1.89485748e-09
24.25           	1.81210994e+00	9.06054973e-01	9.06054964e-01	-1.05792155e-01	-4.63399220e+00	4.52820004e+00	-4.58109612e+00	4.67590679e-09	-1.12416030e-09	1.55267859e-09	-3.47821007e-10	1.90049960e-09
24.5            	1.81080083e+00	9.05400419e-01	9.05400409e-01	-1.06629264e-01	-4.63150325e+00	4.52487399e+00	-4.57818862e+00	4.68464631e-09	-1.12794996e-09	1.55632360e-09	-3.49788156e-10	1.90611175e-09
24.75           	1.80951459e+00	9.04757301e-01	9.04757292e-01	-1.07448670e-01	-4.62905293e+00	4.52160426e+00	-4.57532860e+00	4.69335194e-09	-1.13171503e-09	1.55995786e-09	-3.51736099e-10	1.91169396e-09
25              	1.80822374e+00	9.04111877e-01	9.04111867e-01	-1.08202396e-01	-4.62652597e+00	4.51832358e+00	-4.57242477e+00	4.70202357e-09	-1.13545565e-09	1.56358118e-09	-3.53665055e-10	1.91724624e-09
25.25           	1.80696298e+00	9.03481496e-01	9.03481487e-01	-1.08950995e-01	-4.62406599e+00	4.51511499e+00	-4.56959049e+00	4.71066114e-09	-1.13917183e-09	1.56719336e-09	-3.55575150e-10	1.92276851e-09
25.5            	1.80573116e+00	9.02865586e-01	9.02865576e-01	-1.09683352e-01	-4.62165963e+00	4.51197628e+00	-4.56681795e+00	4.71926470e-09	-1.14286358e-09	1.57079426e-09	-3.57466452e-10	1.92826071e-09
25.75           	1.80451327e+00	9.02256642e-01	9.02256633e-01	-1.10367672e-01	-4.61923846e+00	4.50887079e+00	-4.56405462e+00	4.72783550e-09	-1.14653127e-09	1.57438416e-09	-3.59339192e-10	1.93372335e-09
26              	1.80328904e+00	9.01644524e-01	9.01644514e-01	-1.11042780e-01	-4.61678942e+00	4.50574664e+00	-4.56126803e+00	4.73637448e-09	-1.15017520e-09	1.57796326e-09	-3.61193575e-10	1.93915683e-09
26.25           	1.80204000e+00	9.01020007e-01	9.01019997e-01	-1.11726912e-01	-4.61428068e+00	4.50255377e+00	-4.55841722e+00	4.74488143e-09	-1.15379550e-09	1.58153136e-09	-3.63029825e-10	1.94456118e-09
26.5            	1.80084182e+00	9.00420913e-01	9.00420904e-01	-1.12355157e-01	-4.61184612e+00	4.49949096e+00	-4.55566854e+00	4.75335599e-09	-1.15739214e-09	1.58508816e-09	-3.64848055e-10	1.94993622e-09
26.75           	1.79963653e+00	8.99818271e-01	8.99818261e-01	-1.12989853e-01	-4.60939557e+00	4.49640572e+00	-4.55290065e+00	4.76179875e-09	-1.16096515e-09	1.58863374e-09	-3.66648283e-10	1.95528202e-09
27              	1.79839915e+00	8.99199578e-01	8.99199568e-01	-1.13614581e-01	-4.60685030e+00	4.49323571e+00	-4.55004300e+00	4.77021009e-09	-1.16451463e-09	1.59216808e-09	-3.68430588e-10	1.96059866e-09
27.25           	1.79722034e+00	8.98610176e-01	8.98610166e-01	-1.14202470e-01	-4.60442140e+00	4.49021893e+00	-4.54732016e+00	4.77859005e-09	-1.16804061e-09	1.59569107e-09	-3.70195073e-10	1.96588615e-09
27.5            	1.79601954e+00	8.98009775e-01	8.98009765e-01	-1.14795804e-01	-4.60193751e+00	4.48714171e+00	-4.54453961e+00	4.78693984e-09	-1.17154322e-09	1.59920301e-09	-3.71941717e-10	1.97114473e-09
27.75           	1.79481293e+00	8.97406469e-01	8.97406460e-01	-1.15355138e-01	-4.59940174e+00	4.48404660e+00	-4.54172417e+00	4.79526017e-09	-1.17502257e-09	1.60270402e-09	-3.73670562e-10	1.97637458e-09
28              	1.79361205e+00	8.96806028e-01	8.96806018e-01	-1.15896812e-01	-4.59686094e+00	4.48096413e+00	-4.53891254e+00	4.80355142e-09	-1.17847878e-09	1.60619412e-09	-3.75381719e-10	1.98157584e-09
28.25           	1.79241737e+00	8.96208692e-01	8.96208682e-01	-1.16415292e-01	-4.59430970e+00	4.47789441e+00	-4.53610206e+00	4.81181393e-09	-1.18191202e-09	1.60967339e-09	-3.77075328e-10	1.98674872e-09
28.5            	1.79126894e+00	8.95634477e-01	8.95634467e-01	-1.16892337e-01	-4.59183235e+00	4.47494001e+00	-4.53338618e+00	4.82004803e-09	-1.18532245e-09	1.61314185e-09	-3.78751523e-10	1.99189338e-09
28.75           	1.79012044e+00	8.95060223e-01	8.95060214e-01	-1.17364771e-01	-4.58934790e+00	4.47198312e+00	-4.53066551e+00	4.82825422e-09	-1.18871029e-09	1.61659965e-09	-3.80410465e-10	1.99701012e-09
29              	1.78897391e+00	8.94486962e-01	8.94486952e-01	-1.17800447e-01	-4.58682942e+00	4.46902897e+00	-4.52792920e+00	4.83643304e-09	-1.19207577e-09	1.62004693e-09	-3.82052308e-10	2.00209924e-09
29.25           	1.78784146e+00	8.93920736e-01	8.93920726e-01	-1.18228269e-01	-4.58433885e+00	4.46611058e+00	-4.52522471e+00	4.84458510e-09	-1.19541915e-09	1.62348385e-09	-3.83677220e-10	2.00716107e-09
29.5            	1.78674096e+00	8.93370487e-01	8.93370477e-01	-1.18640272e-01	-4.58191111e+00	4.46327083e+00	-4.52259097e+00	4.85271094e-09	-1.19874066e-09	1.62691057e-09	-3.85285376e-10	2.01219595e-09
29.75           	1.78564267e+00	8.92821337e-01	8.92821328e-01	-1.19024257e-01	-4.57945670e+00	4.46043244e+00	-4.51994457e+00	4.86081101e-09	-1.20204055e-09	1.63032721e-09	-3.86876946e-10	2.01720416e-09
30              	1.78454883e+00	8.92274418e-01	8.92274408e-01	-1.19380036e-01	-4.57698586e+00	4.45760582e+00	-4.51729584e+00	4.86888580e-09	-1.20531901e-09	1.63373390e-09	-3.88452061e-10	2.02218596e-09
30.25           	1.78345972e+00	8.91729864e-01	8.91729854e-01	-1.19710969e-01	-4.57450104e+00	4.45479007e+00	-4.51464555e+00	4.87693587e-09	-1.20857624e-09	1.63713080e-09	-3.90010838e-10	2.02714163e-09
30.5            	1.78237144e+00	8.91185723e-01	8.91185714e-01	-1.20012566e-01	-4.57198693e+00	4.45197436e+00	-4.51198065e+00	4.88496188e-09	-1.21181243e-09	1.64051809e-09	-3.91553387e-10	2.03207148e-09
30.75           	1.78128084e+00	8.90640424e-01	8.90640414e-01	-1.20288675e-01	-4.56943858e+00	4.44914991e+00	-4.50929425e+00	4.89296452e-09	-1.21502782e-09	1.64389601e-09	-3.93079813e-10	2.03697582e-09
31              	1.78021184e+00	8.90105923e-01	8.90105913e-01	-1.20521711e-01	-4.56690145e+00	4.44637974e+00	-4.50664060e+00	4.90094419e-09	-1.21822257e-09	1.64726467e-09	-3.94590235e-10	2.04185491e-09
31.25           	1.77912195e+00	8.89560980e-01	8.89560970e-01	-1.20751517e-01	-4.56430839e+00	4.44355687e+00	-4.50393263e+00	4.90890140e-09	-1.22139694e-09	1.65062424e-09	-3.96084817e-10	2.04670906e-09
31.5            	1.77806040e+00	8.89030207e-01	8.89030197e-01	-1.20945918e-01	-4.56174926e+00	4.44080334e+00	-4.50127630e+00	4.91683641e-09	-1.22455112e-09	1.65397479e-09	-3.97563722e-10	2.05153851e-09
31.75           	1.77700306e+00	8.88501537e-01	8.88501528e-01	-1.21131488e-01	-4.55919060e+00	4.43805911e+00	-4.49862486e+00	4.92474955e-09	-1.22768531e-09	1.65731641e-09	-3.99027105e-10	2.05634352e-09
32              	1.77595233e+00	8.87976170e-01	8.87976160e-01	-1.21283282e-01	-4.55661393e+00	4.43533065e+00	-4.49597229e+00	4.93264099e-09	-1.23079966e-09	1.66064913e-09	-4.00475090e-10	2.06112422e-09
32.25           	1.77491425e+00	8.87457130e-01	8.87457120e-01	-1.21419671e-01	-4.55405092e+00	4.43263125e+00	-4.49334109e+00	4.94051087e-09	-1.23389428e-09	1.66397296e-09	-4.01907796e-10	2.06588076e-09
32.5            	1.77389907e+00	8.86949540e-01	8.86949530e-01	-1.21525164e-01	-4.55151352e+00	4.42998835e+00	-4.49075094e+00	4.94835928e-09	-1.23696928e-09	1.66728788e-09	-4.03325342e-10	2.07061323e-09
32.75           	1.77287994e+00	8.86439973e-01	8.86439963e-01	-1.21615401e-01	-4.54894981e+00	4.42733440e+00	-4.48814210e+00	4.95618641e-09	-1.24002483e-09	1.67059394e-09	-4.04727864e-10	2.07532180e-09
33              	1.77188298e+00	8.85941494e-01	8.85941484e-01	-1.21678497e-01	-4.54641299e+00	4.42473449e+00	-4.48557374e+00	4.96399236e-09	-1.24306105e-09	1.67389112e-09	-4.06115489e-10	2.08000661e-09
33.25           	1.77087713e+00	8.85438569e-01	8.85438560e-01	-1.21717747e-01	-4.54382829e+00	4.42211054e+00	-4.48296941e+00	4.97177732e-09	-1.24607810e-09	1.67717949e-09	-4.07488360e-10	2.08466785e-09
33.5            	1.76990255e+00	8.84951279e-01	8.84951269e-01	-1.21715967e-01	-4.54127950e+00	4.41956353e+00	-4.48042152e+00	4.97954140e-09	-1.24907611e-09	1.68045904e-09	-4.08846592e-10	2.08930563e-09
33.75           	1.76891329e+00	8.84456648e-01	8.84456638e-01	-1.21693781e-01	-4.53867100e+00	4.41697722e+00	-4.47782411e+00	4.98728483e-09	-1.25205522e-09	1.68372985e-09	-4.10190299e-10	2.09392015e-09
34              	1.76794325e+00	8.83971630e-01	8.83971620e-01	-1.21655559e-01	-4.53609406e+00	4.41443850e+00	-4.47526628e+00	4.99500775e-09	-1.25501560e-09	1.68699196e-09	-4.11519623e-10	2.09851158e-09
34.25           	1.76697874e+00	8.83489374e-01	8.83489364e-01	-1.21575921e-01	-4.53348723e+00	4.41191131e+00	-4.47269927e+00	5.00271029e-09	-1.25795738e-09	1.69024539e-09	-4.12834681e-10	2.10308007e-09
34.5            	1.76601395e+00	8.83006982e-01	8.83006972e-01	-1.21494018e-01	-4.53087652e+00	4.40938251e+00	-4.47012951e+00	5.01039265e-09	-1.26088072e-09	1.69349022e-09	-4.14135612e-10	2.10762583e-09
34.75           	1.76505388e+00	8.82526945e-01	8.82526935e-01	-1.21386651e-01	-4.52825098e+00	4.40686433e+00	-4.46755765e+00	5.01805492e-09	-1.26378580e-09	1.69672647e-09	-4.15422568e-10	2.11214904e-09
35              	1.76410921e+00	8.82054610e-01	8.82054600e-01	-1.21261981e-01	-4.52564524e+00	4.40438325e+00	-4.46501424e+00	5.02569720e-09	-1.26667278e-09	1.69995416e-09	-4.16695704e-10	2.11664986e-09
35.25           	1.76317960e+00	8.81589807e-01	8.81589797e-01	-1.21108342e-01	-4.52304915e+00	4.40194081e+00	-4.46249498e+00	5.03331325e-09	-1.26954184e-09	1.70317117e-09	-4.17956251e-10	2.12112742e-09
35.5            	1.76225357e+00	8.81126790e-01	8.81126780e-01	-1.20937213e-01	-4.52044269e+00	4.39950548e+00	-4.45997409e+00	5.04090480e-09	-1.27239313e-09	1.70637806e-09	-4.19204101e-10	2.12558216e-09
35.75           	1.76133751e+00	8.80668760e-01	8.80668749e-01	-1.20734825e-01	-4.51783076e+00	4.39709593e+00	-4.45746334e+00	5.04847480e-09	-1.27522683e-09	1.70957583e-09	-4.20438914e-10	2.13001475e-09
36              	1.76042816e+00	8.80214087e-01	8.80214077e-01	-1.20506572e-01	-4.51520819e+00	4.39470162e+00	-4.45495491e+00	5.05602503e-09	-1.27804310e-09	1.71276507e-09	-4.21660559e-10	2.13442563e-09