# Force and moment coefficients
# dragDir       : (1.00000000e+00 0.00000000e+00 0.00000000e+00)
# sideDir       : (0.00000000e+00 0.00000000e+00 -1.00000000e+00)
# liftDir       : (0.00000000e+00 1.00000000e+00 0.00000000e+00)
# rollAxis      : (1.00000000e+00 0.00000000e+00 0.00000000e+00)
# pitchAxis     : (0.00000000e+00 0.00000000e+00 -1.00000000e+00)
# yawAxis       : (0.00000000e+00 1.00000000e+00 0.00000000e+00)
# magUInf       : 1.12500000e-02
# lRef          : 1.00000000e-01
# Aref          : 1.00000000e-02
# CofR          : (0.00000000e+00 0.00000000e+00 0.00000000e+00)
#
# Time          	Cd              	Cd(f)           	Cd(r)           	Cl              	Cl(f)           	Cl(r)           	CmPitch         	CmRoll          	CmYaw           	Cs              	Cs(f)           	Cs(r)           
0.25            	9.73973896e+01	4.86986948e+01	4.86986948e+01	1.02188363e-01	2.43597603e+02	-2.43495415e+02	2.43546509e+02	2.56648049e-09	7.08709508e-10	-7.24295737e-10	3.46561640e-10	-1.07085738e-09
0.5             	-3.72665192e+01	-1.86332596e+01	-1.86332596e+01	-2.29987631e-02	-9.31832171e+01	9.31602183e+01	-9.31717177e+01	3.42098013e-09	9.46382270e-10	-9.52568206e-10	4.70098167e-10	-1.42266637e-09
0.75            	5.91938478e+00	2.95969239e+00	2.95969239e+00	2.03574073e-02	1.48178147e+01	-1.47974573e+01	1.48076360e+01	3.44712173e-09	9.46766110e-10	-9.53973467e-10	4.69779376e-10	-1.42375284e-09
1               	4.15793435e+00	2.07896718e+00	2.07896717e+00	1.06410327e-02	1.04067834e+01	-1.03961424e+01	1.04014629e+01	3.38292932e-09	9.20184575e-10	-9.31410412e-10	4.54479369e-10	-1.38588978e-09
1.25            	3.82853571e+00	1.91426786e+00	1.91426785e+00	1.25120082e-02	9.58531587e+00	-9.57280386e+00	9.57905987e+00	3.34170700e-09	8.99005027e-10	-9.16326540e-10	4.40841757e-10	-1.35716830e-09
1.5             	3.53088957e+00	1.76544479e+00	1.76544478e+00	1.28775296e-02	8.84179287e+00	-8.82891535e+00	8.83535411e+00	3.36060467e-09	8.93409143e-10	-9.18535336e-10	4.34141475e-10	-1.35267681e-09
1.75            	3.29583431e+00	1.64791716e+00	1.64791715e+00	1.25266347e-02	8.25353602e+00	-8.24100939e+00	8.24727271e+00	3.43552650e-09	9.02404325e-10	-9.36667172e-10	4.34070739e-10	-1.37073791e-09
2               	3.11733187e+00	1.55866594e+00	1.55866593e+00	1.36794572e-02	7.80855485e+00	-7.79487540e+00	7.80171513e+00	3.54418688e-09	9.19943142e-10	-9.64288915e-10	4.37798684e-10	-1.40208760e-09
2.25            	2.98253581e+00	1.49126791e+00	1.49126790e+00	1.44571000e-02	7.47247079e+00	-7.45801369e+00	7.46524224e+00	3.66843417e-09	9.41107405e-10	-9.96270415e-10	4.42972198e-10	-1.43924261e-09
2.5             	2.87216435e+00	1.43608218e+00	1.43608217e+00	1.51163953e-02	7.19715980e+00	-7.18204340e+00	7.18960160e+00	3.79949956e-09	9.63669728e-10	-1.03032382e-09	4.48507819e-10	-1.47883164e-09
2.75            	2.77948903e+00	1.38974452e+00	1.38974451e+00	1.58735097e-02	6.96617798e+00	-6.95030447e+00	6.95824122e+00	3.93331392e-09	9.86596597e-10	-1.06531668e-09	4.53938256e-10	-1.51925494e-09
3               	2.70026585e+00	1.35013293e+00	1.35013292e+00	1.65023464e-02	6.76873943e+00	-6.75223708e+00	6.76048826e+00	4.06835140e-09	1.00943953e-09	-1.10076032e-09	4.59059365e-10	-1.55981969e-09
3.25            	2.63130221e+00	1.31565111e+00	1.31565110e+00	1.67139723e-02	6.59631433e+00	-6.57960036e+00	6.58795734e+00	4.20444263e-09	1.03210260e-09	-1.13659111e-09	4.63807045e-10	-1.60039815e-09
3.5             	2.57133675e+00	1.28566838e+00	1.28566837e+00	1.79393279e-02	6.44769474e+00	-6.42975542e+00	6.43872508e+00	4.34144086e-09	1.05448647e-09	-1.17274117e-09	4.68115887e-10	-1.64085706e-09
3.75            	2.51782877e+00	1.25891439e+00	1.25891438e+00	1.86458523e-02	6.31461549e+00	-6.29596963e+00	6.30529256e+00	4.47944491e-09	1.07651123e-09	-1.20923550e-09	4.71893481e-10	-1.68112898e-09
4               	2.47140199e+00	1.23570100e+00	1.23570099e+00	1.96188587e-02	6.19945049e+00	-6.17983163e+00	6.18964106e+00	4.61853628e-09	1.09812068e-09	-1.24609551e-09	4.75072931e-10	-1.72116844e-09
4.25            	2.42865661e+00	1.21432831e+00	1.21432830e+00	2.04124558e-02	6.09333309e+00	-6.07292064e+00	6.08312687e+00	4.75878246e-09	1.11927602e-09	-1.28333798e-09	4.77607032e-10	-1.76094501e-09
4.5             	2.38974887e+00	1.19487444e+00	1.19487443e+00	2.06532205e-02	5.99632667e+00	-5.97567345e+00	5.98600006e+00	4.90021609e-09	1.13995009e-09	-1.32096687e-09	4.79466657e-10	-1.80043352e-09
4.75            	2.35342665e+00	1.17671333e+00	1.17671332e+00	2.13690816e-02	5.90620193e+00	-5.88483285e+00	5.89551739e+00	5.04288762e-09	1.16012803e-09	-1.35899533e-09	4.80630368e-10	-1.83962570e-09
5               	2.31964047e+00	1.15982024e+00	1.15982023e+00	2.20342074e-02	5.82233984e+00	-5.80030563e+00	5.81132273e+00	5.18682789e-09	1.17979713e-09	-1.39743346e-09	4.81080402e-10	-1.87851386e-09
5.25            	2.28812264e+00	1.14406133e+00	1.14406132e+00	2.27842881e-02	5.74430095e+00	-5.72151666e+00	5.73290880e+00	5.33204959e-09	1.19894769e-09	-1.43628976e-09	4.80802804e-10	-1.91709257e-09
5.5             	2.25837314e+00	1.12918657e+00	1.12918656e+00	2.34603881e-02	5.67055670e+00	-5.64709631e+00	5.65882650e+00	5.47850241e-09	1.21756777e-09	-1.47555267e-09	4.79791440e-10	-1.95534411e-09
5.75            	2.23053317e+00	1.11526659e+00	1.11526658e+00	2.42032348e-02	5.60165258e+00	-5.57744935e+00	5.58955097e+00	5.62609459e-09	1.23564809e-09	-1.51520486e-09	4.78045657e-10	-1.99325052e-09
6               	2.20436983e+00	1.10218492e+00	1.10218491e+00	2.50051577e-02	5.53704981e+00	-5.51204465e+00	5.52454723e+00	5.77464761e-09	1.25317936e-09	-1.55520365e-09	4.75577536e-10	-2.03078118e-09
6.25            	2.17957316e+00	1.08978659e+00	1.08978657e+00	2.57030354e-02	5.47568944e+00	-5.44998641e+00	5.46283792e+00	5.92389104e-09	1.27015388e-09	-1.59548019e-09	4.72413786e-10	-2.06789398e-09
6.5             	2.15589407e+00	1.07794704e+00	1.07794703e+00	2.64962748e-02	5.41728797e+00	-5.39079170e+00	5.40403983e+00	6.07346545e-09	1.28656451e-09	-1.63593980e-09	4.68594614e-10	-2.10453441e-09
6.75            	2.13358057e+00	1.06679029e+00	1.06679028e+00	2.73796973e-02	5.36236386e+00	-5.33498417e+00	5.34867402e+00	6.22292544e-09	1.30240789e-09	-1.67646447e-09	4.64175651e-10	-2.14064012e-09
7               	2.11225303e+00	1.05612652e+00	1.05612651e+00	2.83481321e-02	5.30999174e+00	-5.28164361e+00	5.29581768e+00	6.37173848e-09	1.31768262e-09	-1.71691016e-09	4.59227539e-10	-2.17613770e-09
7.25            	2.09194586e+00	1.04597294e+00	1.04597292e+00	2.92742000e-02	5.26009924e+00	-5.23082504e+00	5.24546214e+00	6.51927176e-09	1.33239194e-09	-1.75710090e-09	4.53841487e-10	-2.21094239e-09
7.5             	2.07267613e+00	1.03633807e+00	1.03633806e+00	3.01094812e-02	5.21271478e+00	-5.18260530e+00	5.19766004e+00	6.66484371e-09	1.34654071e-09	-1.79684870e-09	4.48116362e-10	-2.24496507e-09
7.75            	2.05462093e+00	1.02731047e+00	1.02731046e+00	3.10106672e-02	5.16842221e+00	-5.13741155e+00	5.15291688e+00	6.80774494e-09	1.36014098e-09	-1.83595799e-09	4.42161990e-10	-2.27811998e-09
8               	2.03763074e+00	1.01881538e+00	1.01881536e+00	3.19721637e-02	5.12685141e+00	-5.09487925e+00	5.11086533e+00	6.94724882e-09	1.37321099e-09	-1.87422679e-09	4.36097593e-10	-2.31032438e-09
8.25            	2.02183670e+00	1.01091836e+00	1.01091834e+00	3.30048377e-02	5.08833786e+00	-5.05533302e+00	5.07183544e+00	7.08264828e-09	1.38577175e-09	-1.91145783e-09	4.30042840e-10	-2.34150067e-09
8.5             	2.00715195e+00	1.00357598e+00	1.00357597e+00	3.39332233e-02	5.05246363e+00	-5.01853041e+00	5.03549702e+00	7.21328307e-09	1.39784948e-09	-1.94746598e-09	4.24116489e-10	-2.37158247e-09
8.75            	1.99331868e+00	9.96659347e-01	9.96659332e-01	3.50025265e-02	5.01888296e+00	-4.98388043e+00	5.00138170e+00	7.33856693e-09	1.40947624e-09	-1.98208622e-09	4.18433126e-10	-2.40051935e-09
9               	1.98058871e+00	9.90294361e-01	9.90294346e-01	3.60210812e-02	4.98799856e+00	-4.95197748e+00	4.96998802e+00	7.45800950e-09	1.42068694e-09	-2.01518001e-09	4.13096936e-10	-2.42827695e-09
9.25            	1.96878462e+00	9.84392318e-01	9.84392302e-01	3.71901282e-02	4.95957425e+00	-4.92238412e+00	4.94097918e+00	7.57122936e-09	1.43152007e-09	-2.04663897e-09	4.08200586e-10	-2.45483955e-09
9.5             	1.95805044e+00	9.79025229e-01	9.79025214e-01	3.82672027e-02	4.93372958e+00	-4.89546237e+00	4.91459597e+00	7.67795927e-09	1.44201550e-09	-2.07638602e-09	4.03822489e-10	-2.48020851e-09
9.75            	1.94818628e+00	9.74093146e-01	9.74093130e-01	3.94689989e-02	4.91018377e+00	-4.87071477e+00	4.89044927e+00	7.77805710e-09	1.45221429e-09	-2.10437924e-09	4.00024675e-10	-2.50440391e-09
10              	1.93917180e+00	9.69585910e-01	9.69585895e-01	4.06316147e-02	4.88873224e+00	-4.84810063e+00	4.86841644e+00	7.87150656e-09	1.46215752e-09	-2.13061217e-09	3.96851432e-10	-2.52746360e-09
10.25           	1.93087044e+00	9.65435230e-01	9.65435214e-01	4.18803043e-02	4.86914737e+00	-4.82726707e+00	4.84820722e+00	7.95840758e-09	1.47188647e-09	-2.15511123e-09	3.94330852e-10	-2.54944208e-09
10.5            	1.92335365e+00	9.61676832e-01	9.61676816e-01	4.31845727e-02	4.85156854e+00	-4.80838397e+00	4.82997625e+00	8.03896651e-09	1.48144088e-09	-2.17793340e-09	3.92474177e-10	-2.57040757e-09
10.75           	1.91643057e+00	9.58215292e-01	9.58215276e-01	4.43532289e-02	4.83536445e+00	-4.79101122e+00	4.81318784e+00	8.11347543e-09	1.49085759e-09	-2.19916003e-09	3.91277578e-10	-2.59043760e-09
11              	1.91025361e+00	9.55126812e-01	9.55126795e-01	4.55136114e-02	4.82101654e+00	-4.77550293e+00	4.79825973e+00	8.18229091e-09	1.50017035e-09	-2.21889063e-09	3.90725034e-10	-2.60961566e-09
11.25           	1.90467486e+00	9.52337438e-01	9.52337422e-01	4.66531545e-02	4.80813423e+00	-4.76148108e+00	4.78480765e+00	8.24581530e-09	1.50940924e-09	-2.23723737e-09	3.90790560e-10	-2.62802793e-09
11.5            	1.89969568e+00	9.49847846e-01	9.49847830e-01	4.78811825e-02	4.79683997e+00	-4.74895878e+00	4.77289937e+00	8.30448269e-09	1.51860183e-09	-2.25432170e-09	3.91440976e-10	-2.64576268e-09
11.75           	1.89522667e+00	9.47613344e-01	9.47613327e-01	4.91212847e-02	4.78682466e+00	-4.73770337e+00	4.76226402e+00	8.35874628e-09	1.52777201e-09	-2.27027096e-09	3.92636536e-10	-2.66290749e-09
12              	1.89125368e+00	9.45626846e-01	9.45626829e-01	5.04578869e-02	4.77814573e+00	-4.72768784e+00	4.75291678e+00	8.40899246e-09	1.53693973e-09	-2.28519033e-09	3.94344563e-10	-2.67953489e-09
12.25           	1.88765257e+00	9.43826295e-01	9.43826278e-01	5.19087034e-02	4.77050660e+00	-4.71859790e+00	4.74455225e+00	8.45564420e-09	1.54612172e-09	-2.29919792e-09	3.96522758e-10	-2.69572068e-09
12.5            	1.88419102e+00	9.42095520e-01	9.42095503e-01	5.31419169e-02	4.76306590e+00	-4.70992398e+00	4.73649494e+00	8.49915549e-09	1.55533080e-09	-2.31242312e-09	3.99119240e-10	-2.71154236e-09
12.75           	1.88121421e+00	9.40607115e-01	9.40607098e-01	5.44248054e-02	4.75685624e+00	-4.70243144e+00	4.72964384e+00	8.53994585e-09	1.56457754e-09	-2.32498563e-09	4.02084723e-10	-2.72707035e-09
13              	1.87836269e+00	9.39181356e-01	9.39181339e-01	5.56986939e-02	4.75093897e+00	-4.69524028e+00	4.72308962e+00	8.57838715e-09	1.57386977e-09	-2.33699085e-09	4.05374343e-10	-2.74236519e-09
13.25           	1.87562902e+00	9.37814517e-01	9.37814500e-01	5.70663806e-02	4.74538757e+00	-4.68832119e+00	4.71685438e+00	8.61479041e-09	1.58321352e-09	-2.34852525e-09	4.08950898e-10	-2.75747615e-09
13.5            	1.87316509e+00	9.36582553e-01	9.36582535e-01	5.82853715e-02	4.74041110e+00	-4.68212573e+00	4.71126842e+00	8.64943400e-09	1.59261203e-09	-2.35966584e-09	4.12779111e-10	-2.77244495e-09
13.75           	1.87092338e+00	9.35461700e-01	9.35461683e-01	5.95237799e-02	4.73601432e+00	-4.67649054e+00	4.70625243e+00	8.68257333e-09	1.60206744e-09	-2.37048355e-09	4.16825664e-10	-2.78730921e-09
14              	1.86881385e+00	9.34406932e-01	9.34406915e-01	6.07569503e-02	4.73193801e+00	-4.67118106e+00	4.70155954e+00	8.71443532e-09	1.61158070e-09	-2.38104108e-09	4.21060162e-10	-2.80210124e-09
14.25           	1.86678605e+00	9.33393033e-01	9.33393016e-01	6.20474930e-02	4.72813112e+00	-4.66608363e+00	4.69710738e+00	8.74525242e-09	1.62115264e-09	-2.39140416e-09	4.25450562e-10	-2.81685472e-09
14.5            	1.86493929e+00	9.32469654e-01	9.32469636e-01	6.32991910e-02	4.72473498e+00	-4.66143579e+00	4.69308538e+00	8.77522472e-09	1.63078294e-09	-2.40162873e-09	4.29968571e-10	-2.83159730e-09
14.75           	1.86315478e+00	9.31577400e-01	9.31577382e-01	6.45564223e-02	4.72150728e+00	-4.65695085e+00	4.68922907e+00	8.80447161e-09	1.64047030e-09	-2.41174478e-09	4.34597908e-10	-2.84634269e-09
15              	1.86149626e+00	9.30748140e-01	9.30748123e-01	6.58185401e-02	4.71860028e+00	-4.65278174e+00	4.68569101e+00	8.83309455e-09	1.65021287e-09	-2.42177715e-09	4.39324289e-10	-2.86110144e-09
15.25           	1.85989356e+00	9.29946791e-01	9.29946773e-01	6.70949510e-02	4.71584775e+00	-4.64875280e+00	4.68230028e+00	8.86119124e-09	1.66000848e-09	-2.43175024e-09	4.44133359e-10	-2.87588359e-09
15.5            	1.85826957e+00	9.29134795e-01	9.29134777e-01	6.83142141e-02	4.71298724e+00	-4.64467303e+00	4.67883014e+00	8.88885700e-09	1.66985435e-09	-2.44168834e-09	4.49010178e-10	-2.89069852e-09
15.75           	1.85681287e+00	9.28406443e-01	9.28406425e-01	6.95375746e-02	4.71054287e+00	-4.64100530e+00	4.67577409e+00	8.91616963e-09	1.67974769e-09	-2.45161056e-09	4.53942413e-10	-2.90555297e-09
16              	1.85532848e+00	9.27664249e-01	9.27664231e-01	7.07503157e-02	4.70802600e+00	-4.63727568e+00	4.67265084e+00	8.94319323e-09	1.68968544e-09	-2.46153193e-09	4.58919471e-10	-2.92045140e-09
16.25           	1.85387810e+00	9.26939059e-01	9.26939041e-01	7.19850021e-02	4.70561409e+00	-4.63362909e+00	4.66962159e+00	8.96998389e-09	1.69966501e-09	-2.47146542e-09	4.63932301e-10	-2.93539772e-09
16.5            	1.85243228e+00	9.26216149e-01	9.26216131e-01	7.31889164e-02	4.70318463e+00	-4.62999571e+00	4.66659017e+00	8.99658982e-09	1.70968393e-09	-2.48142184e-09	4.68973008e-10	-2.95039485e-09
16.75           	1.85107511e+00	9.25537564e-01	9.25537546e-01	7.44630454e-02	4.70100780e+00	-4.62654476e+00	4.66377628e+00	9.02304997e-09	1.71973993e-09	-2.49140897e-09	4.74035441e-10	-2.96544441e-09
17              	1.84981913e+00	9.24909576e-01	9.24909558e-01	7.56089471e-02	4.69902498e+00	-4.62341603e+00	4.66122051e+00	9.04941452e-09	1.72982980e-09	-2.50143916e-09	4.79110222e-10	-2.98054938e-09
17.25           	1.84852865e+00	9.24264333e-01	9.24264315e-01	7.68160282e-02	4.69698295e+00	-4.62016692e+00	4.65857493e+00	9.07571265e-09	1.73995092e-09	-2.51151898e-09	4.84191427e-10	-2.99571040e-09
17.5            	1.84718440e+00	9.23592208e-01	9.23592190e-01	7.80557798e-02	4.69484236e+00	-4.61678658e+00	4.65581447e+00	9.10196015e-09	1.75010099e-09	-2.52165059e-09	4.89275700e-10	-3.01092629e-09
17.75           	1.84590959e+00	9.22954803e-01	9.22954785e-01	7.92128268e-02	4.69279467e+00	-4.61358185e+00	4.65318826e+00	9.12816592e-09	1.76027728e-09	-2.53183278e-09	4.94360893e-10	-3.02619368e-09
18              	1.84461555e+00	9.22307782e-01	9.22307764e-01	8.03700576e-02	4.69069620e+00	-4.61032614e+00	4.65051117e+00	9.15433957e-09	1.77047727e-09	-2.54206488e-09	4.99444835e-10	-3.04150971e-09
18.25           	1.84331107e+00	9.21655543e-01	9.21655525e-01	8.15427486e-02	4.68859025e+00	-4.60704750e+00	4.64781888e+00	9.18049070e-09	1.78069861e-09	-2.55234663e-09	5.04525295e-10	-3.05687193e-09
18.5            	1.84201300e+00	9.21006508e-01	9.21006489e-01	8.26835484e-02	4.68646143e+00	-4.60377788e+00	4.64511966e+00	9.20662778e-09	1.79093890e-09	-2.56267781e-09	5.09599995e-10	-3.07227780e-09
18.75           	1.84064535e+00	9.20322687e-01	9.20322668e-01	8.38033896e-02	4.68415301e+00	-4.60034963e+00	4.64225132e+00	9.23275726e-09	1.80119582e-09	-2.57305768e-09	5.14666983e-10	-3.08772466e-09
19              	1.83935323e+00	9.19676622e-01	9.19676604e-01	8.49529712e-02	4.68205539e+00	-4.59710242e+00	4.63957891e+00	9.25888550e-09	1.81146754e-09	-2.58348581e-09	5.19724639e-10	-3.10321045e-09
19.25           	1.83802745e+00	9.19013732e-01	9.19013713e-01	8.61013791e-02	4.67985631e+00	-4.59375493e+00	4.63680562e+00	9.28501887e-09	1.82175245e-09	-2.59396189e-09	5.24771500e-10	-3.11873339e-09
19.5            	1.83673804e+00	9.18369032e-01	9.18369013e-01	8.72065082e-02	4.67771152e+00	-4.59050501e+00	4.63410827e+00	9.31115966e-09	1.83204856e-09	-2.60448430e-09	5.29806415e-10	-3.13429071e-09
19.75           	1.83545622e+00	9.17728119e-01	9.17728100e-01	8.82888916e-02	4.67556196e+00	-4.58727307e+00	4.63141751e+00	9.33730981e-09	1.84235411e-09	-2.61505141e-09	5.34828405e-10	-3.14987981e-09
20              	1.83415239e+00	9.17076207e-01	9.17076188e-01	8.93785799e-02	4.67336511e+00	-4.58398653e+00	4.62867582e+00	9.36347141e-09	1.85266759e-09	-2.62566178e-09	5.39836695e-10	-3.16549848e-09
20.25           	1.83288198e+00	9.16440997e-01	9.16440979e-01	9.04588063e-02	4.67123477e+00	-4.58077596e+00	4.62600537e+00	9.38964678e-09	1.86298765e-09	-2.63631420e-09	5.44830554e-10	-3.18114475e-09
20.5            	1.83158142e+00	9.15790721e-01	9.15790702e-01	9.15262691e-02	4.66901740e+00	-4.57749113e+00	4.62325427e+00	9.41583727e-09	1.87331306e-09	-2.64700717e-09	5.49809470e-10	-3.19681664e-09
20.75           	1.83028099e+00	9.15140504e-01	9.15140485e-01	9.25681544e-02	4.66677550e+00	-4.57420735e+00	4.62049143e+00	9.44204334e-09	1.88364248e-09	-2.65773901e-09	5.54772977e-10	-3.21251198e-09
21              	1.82896452e+00	9.14482271e-01	9.14482252e-01	9.36064248e-02	4.66448801e+00	-4.57088158e+00	4.61768480e+00	9.46826528e-09	1.89397466e-09	-2.66850805e-09	5.59720635e-10	-3.22822868e-09
21.25           	1.82760904e+00	9.13804530e-01	9.13804511e-01	9.46229331e-02	4.66208014e+00	-4.56745720e+00	4.61476867e+00	9.49450245e-09	1.90430835e-09	-2.67931236e-09	5.64652172e-10	-3.24396453e-09
21.5            	1.82628891e+00	9.13144466e-01	9.13144447e-01	9.56608474e-02	4.65978481e+00	-4.56412396e+00	4.61195439e+00	9.52075383e-09	1.91464259e-09	-2.69014997e-09	5.69567602e-10	-3.25971757e-09
21.75           	1.82492171e+00	9.12460863e-01	9.12460844e-01	9.66915331e-02	4.65736263e+00	-4.56067109e+00	4.60901686e+00	9.54701864e-09	1.92497648e-09	-2.70101908e-09	5.74466940e-10	-3.27548602e-09
22              	1.82361075e+00	9.11805384e-01	9.11805365e-01	9.76754737e-02	4.65503137e+00	-4.55735590e+00	4.60619363e+00	9.57329525e-09	1.93530878e-09	-2.71191760e-09	5.79349981e-10	-3.29126758e-09
22.25           	1.82231017e+00	9.11155094e-01	9.11155075e-01	9.86486075e-02	4.65271462e+00	-4.55406601e+00	4.60339032e+00	9.59958210e-09	1.94563853e-09	-2.72284358e-09	5.84216743e-10	-3.30706032e-09
22.5            	1.82101247e+00	9.10506243e-01	9.10506224e-01	9.96045459e-02	4.65038500e+00	-4.55078045e+00	4.60058273e+00	9.62587790e-09	1.95596481e-09	-2.73379523e-09	5.89067193e-10	-3.32286242e-09
22.75           	1.81974319e+00	9.09871605e-01	9.09871586e-01	1.00536427e-01	4.64810226e+00	-4.54756583e+00	4.59783405e+00	9.65216433e-09	1.96628665e-09	-2.74476505e-09	5.93904122e-10	-3.33866918e-09
23              	1.81846243e+00	9.09231225e-01	9.09231206e-01	1.01443764e-01	4.64576333e+00	-4.54431957e+00	4.59504145e+00	9.67844061e-09	1.97660330e-09	-2.75575145e-09	5.98727577e-10	-3.35447902e-09
23.25           	1.81719830e+00	9.08599160e-01	9.08599141e-01	1.02338763e-01	4.64345370e+00	-4.54111494e+00	4.59228432e+00	9.70471094e-09	1.98691400e-09	-2.76675420e-09	6.03536896e-10	-3.37029110e-09
23.5            	1.81591761e+00	9.07958813e-01	9.07958793e-01	1.03219440e-01	4.64108629e+00	-4.53786685e+00	4.58947657e+00	9.73098134e-09	1.99721806e-09	-2.77777438e-09	6.08330867e-10	-3.38610525e-09
23.75           	1.81465841e+00	9.07329216e-01	9.07329197e-01	1.04082886e-01	4.63875399e+00	-4.53467110e+00	4.58671255e+00	9.75725495e-09	2.00751482e-09	-2.78881218e-09	6.13108728e-10	-3.40192090e-09
24              	1.81338054e+00	9.06690278e-01	9.06690259e-01	1.04929349e-01	4.63635686e+00	-4.53142751e+00	4.58389219e+00	9.78353288e-09	2.01780368e-09	-2.79986702e-09	6.17870169e-10	-3.41773719e-09
24.25           	1.81210569e+00	9.06052855e-01	9.06052836e-01	1.05766769e-01	4.63395643e+00	-4.52818966e+00	4.58107305e+00	9.80981528e-09	2.02808424e-09	-2.81093806e-09	6.22615209e-10	-3.43355327e-09
24.5            	1.81079646e+00	9.05398238e-01	9.05398218e-01	1.06604222e-01	4.63146752e+00	-4.52486330e+00	4.57816541e+00	9.83610201e-09	2.03835620e-09	-2.82202433e-09	6.27344032e-10	-3.44936836e-09
24.75           	1.80951133e+00	9.04755673e-01	9.04755654e-01	1.07424863e-01	4.62902118e+00	-4.52159631e+00	4.57530875e+00	9.86239244e-09	2.04861906e-09	-2.83312474e-09	6.32056688e-10	-3.46518143e-09
25              	1.80822026e+00	9.04110141e-01	9.04110122e-01	1.08179124e-01	4.62649424e+00	-4.51831512e+00	4.57240468e+00	9.88868321e-09	2.05887154e-09	-2.84423716e-09	6.36752958e-10	-3.48099012e-09
25.25           	1.80695943e+00	9.03479727e-01	9.03479707e-01	1.08928064e-01	4.62403447e+00	-4.51510641e+00	4.56957044e+00	9.91497154e-09	2.06911284e-09	-2.85535980e-09	6.41432943e-10	-3.49679274e-09
25.5            	1.80572764e+00	9.02863830e-01	9.02863810e-01	1.09660952e-01	4.62162871e+00	-4.51196776e+00	4.56679824e+00	9.94125844e-09	2.07934272e-09	-2.86649229e-09	6.46096582e-10	-3.51258887e-09
25.75           	1.80450968e+00	9.02254852e-01	9.02254832e-01	1.10345762e-01	4.61920791e+00	-4.50886215e+00	4.56403503e+00	9.96754458e-09	2.08956116e-09	-2.87763413e-09	6.50744092e-10	-3.52837822e-09
26              	1.80328383e+00	9.01641923e-01	9.01641903e-01	1.11022022e-01	4.61675603e+00	-4.50573401e+00	4.56124502e+00	9.99383001e-09	2.09976835e-09	-2.88878462e-09	6.55376044e-10	-3.54416066e-09
26.25           	1.80203488e+00	9.01017452e-01	9.01017432e-01	1.11706418e-01	4.61424774e+00	-4.50254132e+00	4.55839453e+00	1.00201158e-08	2.10996442e-09	-2.89994345e-09	6.59992695e-10	-3.55993614e-09
26.5            	1.80083672e+00	9.00418370e-01	9.00418349e-01	1.12335485e-01	4.61181407e+00	-4.49947859e+00	4.55564633e+00	1.00464042e-08	2.12014880e-09	-2.91111069e-09	6.64593457e-10	-3.57570415e-09
26.75           	1.79963159e+00	8.99815805e-01	8.99815785e-01	1.12970256e-01	4.60936407e+00	-4.49639381e+00	4.55287894e+00	1.00726969e-08	2.13032106e-09	-2.92228631e-09	6.69177911e-10	-3.59146422e-09
27              	1.79839292e+00	8.99196472e-01	8.99196452e-01	1.13596094e-01	4.60681665e+00	-4.49322055e+00	4.55001860e+00	1.00989943e-08	2.14048091e-09	-2.93346984e-09	6.73745994e-10	-3.60721583e-09
27.25           	1.79721433e+00	8.98607173e-01	8.98607153e-01	1.14184159e-01	4.60438848e+00	-4.49020432e+00	4.54729640e+00	1.01252962e-08	2.15062791e-09	-2.94466069e-09	6.78297570e-10	-3.62295826e-09
27.5            	1.79601390e+00	8.98006960e-01	8.98006940e-01	1.14777767e-01	4.60190580e+00	-4.48712803e+00	4.54451692e+00	1.01516024e-08	2.16076185e-09	-2.95585820e-09	6.82832750e-10	-3.63869095e-09
27.75           	1.79480626e+00	8.97403140e-01	8.97403119e-01	1.15337914e-01	4.59936823e+00	-4.48403032e+00	4.54169927e+00	1.01779114e-08	2.17088236e-09	-2.96706138e-09	6.87351666e-10	-3.65441304e-09
28              	1.79360727e+00	8.96803647e-01	8.96803626e-01	1.15876762e-01	4.59682937e+00	-4.48095260e+00	4.53889099e+00	1.02042250e-08	2.18098900e-09	-2.97827022e-09	6.91853885e-10	-3.67012411e-09
28.25           	1.79241287e+00	8.96206445e-01	8.96206425e-01	1.16395735e-01	4.59427932e+00	-4.47788358e+00	4.53608145e+00	1.02305552e-08	2.19108130e-09	-2.98948838e-09	6.96337114e-10	-3.68582549e-09
28.5            	1.79126412e+00	8.95632072e-01	8.95632052e-01	1.16873043e-01	4.59180144e+00	-4.47492839e+00	4.53336491e+00	1.02568963e-08	2.20115865e-09	-3.00071337e-09	7.00801967e-10	-3.70151534e-09
28.75           	1.79011576e+00	8.95057890e-01	8.95057870e-01	1.17345965e-01	4.58931785e+00	-4.47197189e+00	4.53064487e+00	1.02832407e-08	2.21122065e-09	-3.01194228e-09	7.05249505e-10	-3.71719179e-09
29              	1.78896747e+00	8.94483746e-01	8.94483726e-01	1.17782985e-01	4.58679627e+00	-4.46901329e+00	4.52790478e+00	1.03095842e-08	2.22126684e-09	-3.02317322e-09	7.09680234e-10	-3.73285345e-09
29.25           	1.78783771e+00	8.93918867e-01	8.93918847e-01	1.18209691e-01	4.58431142e+00	-4.46610172e+00	4.52520657e+00	1.03359108e-08	2.23129265e-09	-3.03440046e-09	7.14092420e-10	-3.74849288e-09
29.5            	1.78673726e+00	8.93368639e-01	8.93368619e-01	1.18621745e-01	4.58188384e+00	-4.46326209e+00	4.52257296e+00	1.03621997e-08	2.24129165e-09	-3.04561669e-09	7.18483305e-10	-3.76409999e-09
29.75           	1.78563902e+00	8.92819518e-01	8.92819497e-01	1.19006207e-01	4.57943005e+00	-4.46042384e+00	4.51992694e+00	1.03884598e-08	2.25126653e-09	-3.05682454e-09	7.22854260e-10	-3.77967880e-09
30              	1.78454496e+00	8.92272491e-01	8.92272470e-01	1.19363114e-01	4.57695981e+00	-4.45759670e+00	4.51727826e+00	1.04147024e-08	2.26122062e-09	-3.06802743e-09	7.27206903e-10	-3.79523433e-09
30.25           	1.78345605e+00	8.91728037e-01	8.91728016e-01	1.19694497e-01	4.57447594e+00	-4.45478144e+00	4.51462869e+00	1.04409350e-08	2.27115596e-09	-3.07922748e-09	7.31542223e-10	-3.81076971e-09
30.5            	1.78236770e+00	8.91183860e-01	8.91183839e-01	1.19996447e-01	4.57196202e+00	-4.45196557e+00	4.51196380e+00	1.04671610e-08	2.28107341e-09	-3.09042557e-09	7.35860625e-10	-3.82628620e-09
30.75           	1.78127406e+00	8.90637040e-01	8.90637019e-01	1.20274097e-01	4.56940758e+00	-4.44913349e+00	4.50927053e+00	1.04933817e-08	2.29097309e-09	-3.10162182e-09	7.40162179e-10	-3.84178400e-09
31              	1.78020679e+00	8.90103407e-01	8.90103386e-01	1.20507096e-01	4.56687477e+00	-4.44636767e+00	4.50662122e+00	1.05195967e-08	2.30085467e-09	-3.11281578e-09	7.44446778e-10	-3.85726256e-09
31.25           	1.77911908e+00	8.89559550e-01	8.89559529e-01	1.20735975e-01	4.56428627e+00	-4.44355029e+00	4.50391828e+00	1.05458058e-08	2.31071793e-09	-3.12400710e-09	7.48714380e-10	-3.87272148e-09
31.5            	1.77805755e+00	8.89028785e-01	8.89028764e-01	1.20930792e-01	4.56172758e+00	-4.44079679e+00	4.50126218e+00	1.05720080e-08	2.32056253e-09	-3.13519525e-09	7.52964902e-10	-3.88816015e-09
31.75           	1.77700029e+00	8.88500157e-01	8.88500136e-01	1.21116736e-01	4.55916952e+00	-4.43805278e+00	4.49861115e+00	1.05982029e-08	2.33038822e-09	-3.14637976e-09	7.57198339e-10	-3.90357810e-09
32              	1.77595004e+00	8.87975030e-01	8.87975009e-01	1.21269330e-01	4.55659487e+00	-4.43532554e+00	4.49596020e+00	1.06243884e-08	2.34019464e-09	-3.15755971e-09	7.61414789e-10	-3.91897450e-09
32.25           	1.77491199e+00	8.87456007e-01	8.87455986e-01	1.21405969e-01	4.55403222e+00	-4.43262625e+00	4.49332924e+00	1.06505628e-08	2.34998144e-09	-3.16873434e-09	7.65614274e-10	-3.93434861e-09
32.5            	1.77389675e+00	8.86948386e-01	8.86948365e-01	1.21512008e-01	4.55149518e+00	-4.42998317e+00	4.49073918e+00	1.06767253e-08	2.35974826e-09	-3.17990310e-09	7.69796709e-10	-3.94969981e-09
32.75           	1.77287753e+00	8.86438777e-01	8.86438755e-01	1.21602634e-01	4.54893166e+00	-4.42732903e+00	4.48813035e+00	1.07028755e-08	2.36949488e-09	-3.19106571e-09	7.73962025e-10	-3.96502774e-09
33              	1.77188085e+00	8.85940436e-01	8.85940415e-01	1.21666147e-01	4.54639598e+00	-4.42472984e+00	4.48556291e+00	1.07290129e-08	2.37922099e-09	-3.20222175e-09	7.78110112e-10	-3.98033186e-09
33.25           	1.77087497e+00	8.85437497e-01	8.85437476e-01	1.21705838e-01	4.54381166e+00	-4.42210582e+00	4.48295874e+00	1.07551372e-08	2.38892638e-09	-3.21337094e-09	7.82240916e-10	-3.99561185e-09
33.5            	1.76990040e+00	8.84950209e-01	8.84950188e-01	1.21704473e-01	4.54126333e+00	-4.41955885e+00	4.48041109e+00	1.07812474e-08	2.39861070e-09	-3.22451275e-09	7.86354327e-10	-4.01086707e-09
33.75           	1.76891138e+00	8.84455701e-01	8.84455680e-01	1.21682695e-01	4.53865589e+00	-4.41697319e+00	4.47781454e+00	1.08073428e-08	2.40827366e-09	-3.23564678e-09	7.90450275e-10	-4.02609705e-09
34              	1.76794135e+00	8.83970685e-01	8.83970663e-01	1.21644868e-01	4.53607935e+00	-4.41443449e+00	4.47525692e+00	1.08334224e-08	2.41791505e-09	-3.24677259e-09	7.94528752e-10	-4.04130134e-09
34.25           	1.76697683e+00	8.83488428e-01	8.83488406e-01	1.21565511e-01	4.53347282e+00	-4.41190731e+00	4.47269006e+00	1.08594855e-08	2.42753452e-09	-3.25788973e-09	7.98589659e-10	-4.05647939e-09
34.5            	1.76601206e+00	8.83006040e-01	8.83006019e-01	1.21484181e-01	4.53086271e+00	-4.40937852e+00	4.47012061e+00	1.08855312e-08	2.43713193e-09	-3.26899780e-09	8.02633034e-10	-4.07163084e-09
34.75           	1.76505165e+00	8.82525838e-01	8.82525816e-01	1.21377137e-01	4.52823666e+00	-4.40685953e+00	4.46754809e+00	1.09115586e-08	2.44670706e-09	-3.28009632e-09	8.06658904e-10	-4.08675522e-09
35              	1.76410685e+00	8.82053437e-01	8.82053415e-01	1.21252797e-01	4.52563092e+00	-4.40437812e+00	4.46500452e+00	1.09375667e-08	2.45625971e-09	-3.29118479e-09	8.10667316e-10	-4.10185211e-09
35.25           	1.76317744e+00	8.81588733e-01	8.81588711e-01	1.21099709e-01	4.52303590e+00	-4.40193619e+00	4.46248604e+00	1.09635543e-08	2.46578966e-09	-3.30226269e-09	8.14658317e-10	-4.11692101e-09
35.5            	1.76225136e+00	8.81125689e-01	8.81125667e-01	1.20928825e-01	4.52042954e+00	-4.39950072e+00	4.45996513e+00	1.09895206e-08	2.47529672e-09	-3.31332961e-09	8.18631913e-10	-4.13196152e-09
35.75           	1.76133536e+00	8.80667691e-01	8.80667669e-01	1.20726861e-01	4.51781821e+00	-4.39709135e+00	4.45745478e+00	1.10154647e-08	2.48478060e-09	-3.32438509e-09	8.22588054e-10	-4.14697314e-09
36              	1.76042607e+00	8.80213045e-01	8.80213023e-01	1.20499037e-01	4.51519621e+00	-4.39469717e+00	4.45494669e+00	1.10413859e-08	2.49424106e-09	-3.33542879e-09	8.26526666e-10	-4.16195546e-09
36.25           	1.75951944e+00	8.79759733e-01	8.79759711e-01	1.20253586e-01	4.51256297e+00	-4.39230938e+00	4.45243618e+00	1.10672835e-08	2.50367793e-09	-3.34646029e-09	8.30447791e-10	-4.17690808e-09