# Probe 0 (0.15 0.05 0)
# Probe 1 (0.15 0 0)
# Probe 2 (0.15 -0.05 0)
# Probe 3 (0.35 0.1 0)
# Probe 4 (0.35 0.05 0)
# Probe 5 (0.35 0 0)
# Probe 6 (0.35 -0.05 0)
# Probe 7 (0.35 -0.1 0)
# Probe 8 (0.55 0.1 0)
# Probe 9 (0.55 -0.05 0)
# Probe 10 (0.55 0 0)
# Probe 11 (0.55 -0.05 0)
# Probe 12 (0.55 -0.1 0)
#         Probe               0               1               2               3               4               5               6               7               8               9              10              11              12
#          Time
        2000.25  -2.1014737e-05  -2.1351058e-05  -2.1014795e-05  -2.0810015e-05    -1.62097e-05  -1.4981074e-05  -1.6209826e-05  -2.1439555e-05  -2.2837554e-06  -1.3604242e-06  -1.1171417e-06  -1.3604242e-06  -2.4088466e-06
         2000.5  -2.0644184e-05  -2.0983518e-05  -2.0644235e-05  -2.0520208e-05  -1.5908664e-05  -1.4682577e-05  -1.5908811e-05  -2.1153252e-05  -2.0543956e-06  -1.1165019e-06  -8.6619215e-07  -1.1165019e-06  -2.1805799e-06
        2000.75  -2.0230265e-05  -2.0571623e-05  -2.0230419e-05  -2.0176149e-05  -1.5556256e-05  -1.4333835e-05  -1.5556472e-05  -2.0813007e-05  -1.7821189e-06  -8.3120793e-07  -5.7487345e-07  -8.3120793e-07  -1.9091764e-06
           2001  -1.9803982e-05  -2.0146414e-05  -1.9804063e-05  -1.9808313e-05  -1.5183096e-05  -1.3964238e-05  -1.5183058e-05  -2.0447878e-05  -1.4952114e-06  -5.3095675e-07  -2.6873508e-07  -5.3095675e-07  -1.6230097e-06
        2001.25  -1.9411557e-05  -1.9754005e-05  -1.9411664e-05  -1.9461347e-05  -1.4832362e-05  -1.3618451e-05  -1.4832398e-05  -2.0104933e-05  -1.2295182e-06  -2.5125196e-07   1.7173797e-08  -2.5125196e-07  -1.3585659e-06
         2001.5  -1.9075582e-05  -1.9416962e-05  -1.9075626e-05  -1.9150694e-05  -1.4526782e-05  -1.3319871e-05  -1.4526967e-05  -1.9796128e-05  -1.0144584e-06  -2.1481451e-08   2.5359869e-07  -2.1481451e-08  -1.1451717e-06
        2001.75  -1.8798262e-05  -1.9137777e-05   -1.879853e-05  -1.8884658e-05   -1.426776e-05   -1.306899e-05   -1.426812e-05  -1.9531783e-05  -8.5521109e-07   1.5446876e-07   4.3706991e-07   1.5446876e-07  -9.8771408e-07
           2002  -1.8566223e-05  -1.8902737e-05  -1.8566435e-05  -1.8645614e-05  -1.4042394e-05  -1.2850481e-05  -1.4042517e-05  -1.9292559e-05   -7.386484e-07   2.9036125e-07   5.8123188e-07   2.9036125e-07  -8.7243597e-07
        2002.25  -1.8369547e-05  -1.8701758e-05  -1.8369435e-05  -1.8420427e-05  -1.3840871e-05  -1.2657785e-05   -1.384085e-05  -1.9066096e-05  -6.6025735e-07   3.8927313e-07   6.8917036e-07   3.8927313e-07   -7.962914e-07
         2002.5  -1.8215142e-05  -1.8542608e-05  -1.8215421e-05  -1.8219702e-05  -1.3671664e-05  -1.2500155e-05  -1.3672013e-05  -1.8863466e-05  -6.2098689e-07   4.4971135e-07   7.5902319e-07   4.4971135e-07  -7.5954307e-07
        2002.75  -1.8088867e-05  -1.8410305e-05  -1.8088944e-05  -1.8025976e-05  -1.3519805e-05  -1.2362259e-05   -1.351994e-05  -1.8662531e-05  -6.0394411e-07   4.8860064e-07   8.0701682e-07   4.8860064e-07  -7.4423142e-07
           2003  -1.7999547e-05  -1.8314371e-05  -1.7999516e-05  -1.7855165e-05  -1.3393127e-05  -1.2248311e-05  -1.3393108e-05  -1.8484427e-05  -6.1349215e-07   4.9999125e-07   8.2686662e-07   4.9999125e-07  -7.5530181e-07
        2003.25  -1.7967574e-05  -1.8274317e-05  -1.7967639e-05  -1.7731022e-05  -1.3313508e-05  -1.2179567e-05  -1.3313501e-05  -1.8351222e-05  -6.7581049e-07   4.5759873e-07   7.9256242e-07   4.5759873e-07  -8.1929005e-07
         2003.5  -1.8020532e-05  -1.8317345e-05  -1.8020604e-05  -1.7661401e-05  -1.3306397e-05  -1.2187885e-05  -1.3306399e-05  -1.8272928e-05  -8.2580413e-07   3.2731902e-07   6.7025734e-07   3.2731902e-07  -9.7104239e-07
        2003.75   -1.814865e-05  -1.8436991e-05  -1.8148603e-05  -1.7640719e-05  -1.3358884e-05  -1.2262597e-05  -1.3358646e-05  -1.8236235e-05  -1.0480357e-06   1.2539215e-07   4.7618877e-07   1.2539215e-07  -1.1945066e-06
           2004  -1.8336125e-05  -1.8613513e-05   -1.833622e-05  -1.7675178e-05  -1.3462831e-05  -1.2392036e-05  -1.3462813e-05  -1.8256756e-05  -1.3374671e-06  -1.4292555e-07   2.1648845e-07  -1.4292555e-07  -1.4863081e-06
        2004.25  -1.8558277e-05  -1.8824298e-05  -1.8558425e-05  -1.7728041e-05  -1.3592132e-05   -1.255167e-05  -1.3592145e-05  -1.8299726e-05  -1.6618299e-06  -4.4457645e-07  -7.6036837e-08  -4.4457645e-07  -1.8130101e-06
         2004.5  -1.8811868e-05   -1.906742e-05   -1.881197e-05   -1.781545e-05  -1.3743057e-05  -1.2732718e-05  -1.3743115e-05  -1.8378444e-05  -2.0200222e-06  -7.7830429e-07  -4.0001577e-07  -7.7830429e-07  -2.1738187e-06
        2004.75  -1.9109027e-05  -1.9351118e-05  -1.9108992e-05  -1.7928538e-05  -1.3927713e-05  -1.2941374e-05  -1.3927588e-05  -1.8480097e-05  -2.4193567e-06  -1.1518486e-06  -7.6358362e-07  -1.1518486e-06  -2.5754672e-06
           2005  -1.9412966e-05  -1.9641336e-05  -1.9413318e-05  -1.8016779e-05  -1.4104245e-05  -1.3138239e-05  -1.4104501e-05  -1.8551969e-05  -2.8166488e-06   -1.523258e-06  -1.1245492e-06   -1.523258e-06   -2.976582e-06
        2005.25  -1.9687862e-05  -1.9902184e-05  -1.9687938e-05  -1.8061251e-05  -1.4237723e-05  -1.3294592e-05  -1.4237807e-05  -1.8578862e-05  -3.1756558e-06  -1.8545027e-06  -1.4453427e-06  -1.8545027e-06  -3.3383489e-06
         2005.5  -1.9910572e-05  -2.0108213e-05  -1.9910405e-05  -1.8032135e-05  -1.4305026e-05  -1.3393714e-05  -1.4304862e-05  -1.8542573e-05  -3.4727328e-06  -2.1228785e-06  -1.7032757e-06  -2.1228785e-06  -3.6379602e-06
        2005.75  -2.0080709e-05  -2.0261889e-05  -2.0080558e-05  -1.7939361e-05  -1.4307543e-05  -1.3426524e-05  -1.4307344e-05   -1.844656e-05  -3.7226334e-06  -2.3436199e-06  -1.9133513e-06  -2.3436199e-06  -3.8909314e-06
           2006  -2.0211961e-05  -2.0375643e-05  -2.0211854e-05   -1.780098e-05  -1.4256312e-05  -1.3401378e-05  -1.4256143e-05   -1.830627e-05  -3.9242797e-06  -2.5154786e-06  -2.0743613e-06  -2.5154786e-06  -4.0958502e-06
        2006.25  -2.0325241e-05  -2.0470897e-05  -2.0325209e-05  -1.7643307e-05   -1.417848e-05  -1.3333421e-05  -1.4178258e-05  -1.8136376e-05  -4.1150202e-06  -2.6763741e-06  -2.2245273e-06  -2.6763741e-06  -4.2897028e-06
         2006.5  -2.0442352e-05  -2.0570566e-05  -2.0442323e-05  -1.7456706e-05  -1.4097378e-05  -1.3273332e-05  -1.4097163e-05  -1.7935037e-05  -4.3178978e-06  -2.8486507e-06  -2.3860834e-06  -2.8486507e-06  -4.4951653e-06
        2006.75  -2.0539836e-05  -2.0649226e-05  -2.0540006e-05  -1.7235036e-05  -1.3987697e-05  -1.3201927e-05  -1.3987649e-05  -1.7698523e-05  -4.4943924e-06  -2.9948522e-06  -2.5212637e-06  -2.9948522e-06  -4.6754667e-06
           2007  -2.0607803e-05  -2.0697366e-05  -2.0607753e-05  -1.6968136e-05  -1.3838585e-05  -1.3093829e-05  -1.3838258e-05  -1.7412354e-05  -4.6490879e-06  -3.1170864e-06  -2.6322175e-06  -3.1170864e-06  -4.8333098e-06
        2007.25   -2.065096e-05  -2.0720197e-05  -2.0650957e-05  -1.6647686e-05  -1.3646264e-05  -1.2935164e-05  -1.3645989e-05  -1.7069187e-05  -4.7674691e-06  -3.2012872e-06  -2.7044755e-06  -3.2012872e-06  -4.9555313e-06
         2007.5  -2.0673928e-05  -2.0722396e-05  -2.0673754e-05  -1.6282428e-05  -1.3422552e-05   -1.274288e-05    -1.34221e-05  -1.6680576e-05  -4.8640196e-06  -3.2617481e-06  -2.7524881e-06  -3.2617481e-06  -5.0562859e-06
        2007.75   -2.065328e-05  -2.0680386e-05  -2.0653267e-05  -1.5848373e-05  -1.3142522e-05  -1.2506693e-05  -1.3142138e-05  -1.6226587e-05  -4.9111805e-06  -3.2710353e-06  -2.7486645e-06  -3.2710353e-06  -5.1083045e-06
           2008  -2.0570449e-05  -2.0575154e-05  -2.0570101e-05  -1.5338733e-05  -1.2791678e-05   -1.220671e-05  -1.2791158e-05  -1.5697837e-05  -4.8953066e-06  -3.2154347e-06  -2.6797972e-06  -3.2154347e-06  -5.0965363e-06
        2008.25  -2.0385811e-05  -2.0367871e-05  -2.0385471e-05  -1.4721098e-05  -1.2326447e-05  -1.1790354e-05  -1.2326029e-05  -1.5059309e-05  -4.7691864e-06  -3.0482325e-06  -2.4986364e-06  -3.0482325e-06  -4.9754449e-06
         2008.5  -2.0122349e-05  -2.0081578e-05  -2.0122065e-05  -1.4013178e-05  -1.1773629e-05  -1.1283914e-05  -1.1773201e-05   -1.432991e-05  -4.5651083e-06  -2.8026934e-06  -2.2393105e-06  -2.8026934e-06  -4.7761643e-06
        2008.75  -1.9817599e-05  -1.9753501e-05  -1.9817352e-05  -1.3250803e-05  -1.1171663e-05  -1.0734122e-05  -1.1171353e-05  -1.3545566e-05  -4.3217719e-06  -2.5172266e-06  -1.9398722e-06  -2.5172266e-06  -4.5379037e-06
           2009  -1.9529236e-05  -1.9441486e-05   -1.952923e-05  -1.2493847e-05  -1.0580321e-05  -1.0195528e-05  -1.0580191e-05  -1.2766585e-05  -4.1052387e-06  -2.2580541e-06  -1.6666753e-06  -2.2580541e-06  -4.3267729e-06
        2009.25  -1.9268445e-05  -1.9156198e-05  -1.9268301e-05  -1.1749186e-05  -1.0003955e-05  -9.6631284e-06  -1.0003698e-05  -1.1999187e-05  -3.9111592e-06   -2.019464e-06  -1.4138362e-06   -2.019464e-06  -4.1377296e-06
         2009.5  -1.9078189e-05   -1.894132e-05  -1.9078079e-05  -1.1064249e-05  -9.4918935e-06  -9.1927506e-06  -9.4916102e-06  -1.1291452e-05  -3.8031488e-06  -1.8655368e-06  -1.2453101e-06  -1.8655368e-06  -4.0350713e-06
        2009.75  -1.8976848e-05  -1.8815286e-05  -1.8976683e-05  -1.0462312e-05  -9.0615112e-06  -8.8060375e-06  -9.0611721e-06  -1.0666045e-05  -3.7888091e-06  -1.8032514e-06  -1.1679188e-06  -1.8032514e-06  -4.0262695e-06
           2010  -1.8967702e-05  -1.8780944e-05  -1.8967406e-05  -9.9433282e-06  -8.7154926e-06   -8.508836e-06  -8.7150599e-06  -1.0123065e-05  -3.8664314e-06  -1.8311823e-06  -1.1802453e-06  -1.8311823e-06  -4.1097233e-06
        2010.25  -1.9031909e-05  -1.8819634e-05  -1.9031577e-05  -9.4887893e-06  -8.4358303e-06  -8.2791866e-06   -8.435238e-06  -9.6443655e-06  -4.0118103e-06  -1.9247155e-06  -1.2576583e-06  -1.9247155e-06  -4.2610621e-06
         2010.5  -1.9147153e-05  -1.8909104e-05  -1.9147027e-05  -9.0736429e-06  -8.1978379e-06  -8.0898064e-06  -8.1974931e-06   -9.205779e-06  -4.1969987e-06  -2.0566587e-06  -1.3729128e-06  -2.0566587e-06  -4.4531581e-06
        2010.75  -1.9300802e-05  -1.9036575e-05  -1.9300655e-05  -8.6882391e-06  -7.9899007e-06   -7.928115e-06  -7.9895531e-06  -8.7965558e-06   -4.415084e-06  -2.2189781e-06  -1.5180168e-06  -2.2189781e-06  -4.6780937e-06
           2011  -1.9485503e-05  -1.9195191e-05  -1.9485426e-05  -8.3243915e-06  -7.8061333e-06  -7.7925789e-06  -7.8057904e-06  -8.4086594e-06  -4.6592182e-06  -2.4053349e-06  -1.6868564e-06  -2.4053349e-06  -4.9291649e-06
        2011.25    -1.96953e-05  -1.9378487e-05  -1.9695343e-05  -7.9770707e-06  -7.6397958e-06  -7.6783554e-06  -7.6396682e-06  -8.0382448e-06  -4.9305256e-06  -2.6168857e-06  -1.8803398e-06  -2.6168857e-06  -5.2083165e-06
         2011.5  -1.9941094e-05  -1.9597509e-05  -1.9941113e-05  -7.6622391e-06  -7.5058075e-06   -7.599357e-06  -7.5056813e-06  -7.6998938e-06   -5.248753e-06  -2.8719263e-06  -2.1165512e-06  -2.8719263e-06  -5.5345047e-06
        2011.75   -2.022129e-05  -1.9850822e-05  -2.0221346e-05  -7.3793166e-06  -7.4032993e-06  -7.5536285e-06  -7.4032106e-06  -7.3936672e-06  -5.6105245e-06  -3.1691589e-06  -2.3947575e-06  -3.1691589e-06  -5.9045082e-06
           2012  -2.0527073e-05  -2.0129569e-05  -2.0526945e-05  -7.1208813e-06  -7.3244944e-06    -7.52806e-06  -7.3241819e-06  -7.1118361e-06  -6.0072206e-06  -3.4997464e-06  -2.7060786e-06  -3.4997464e-06  -6.3092039e-06
        2012.25  -2.0842103e-05  -2.0417554e-05  -2.0841803e-05  -6.8712993e-06  -7.2525231e-06  -7.5066171e-06   -7.252058e-06  -6.8396558e-06  -6.4151764e-06  -3.8396901e-06  -3.0260688e-06  -3.8396901e-06  -6.7257936e-06
         2012.5  -2.1138327e-05  -2.0686971e-05  -2.1138166e-05  -6.6048836e-06  -7.1624222e-06  -7.4644549e-06  -7.1620402e-06  -6.5509874e-06   -6.807579e-06  -4.1623425e-06  -3.3283496e-06  -4.1623425e-06  -7.1268592e-06
        2012.75  -2.1410141e-05  -2.0931692e-05    -2.14098e-05  -6.3158055e-06  -7.0472511e-06  -7.3969519e-06  -7.0466705e-06   -6.239792e-06  -7.1778043e-06  -4.4610938e-06  -3.6068039e-06  -4.4610938e-06  -7.5055531e-06
           2013  -2.1649054e-05   -2.114316e-05  -2.1648327e-05   -5.991639e-06  -6.8937454e-06  -7.2917831e-06  -6.8929173e-06  -5.8945739e-06  -7.5118007e-06  -4.7225591e-06  -3.8480317e-06  -4.7225591e-06  -7.8489108e-06
        2013.25  -2.1861538e-05  -2.1328619e-05    -2.18611e-05  -5.6410771e-06  -6.7097981e-06  -7.1565106e-06  -6.7090674e-06  -5.5233978e-06  -7.8142135e-06   -4.949412e-06  -4.0540883e-06   -4.949412e-06  -8.1608057e-06
         2013.5  -2.2062181e-05   -2.150201e-05  -2.2061831e-05  -5.2783145e-06  -6.5103318e-06   -7.005739e-06  -6.5096967e-06  -5.1415202e-06  -8.1100539e-06  -5.1651948e-06  -4.2473452e-06  -5.1651948e-06  -8.4678859e-06
        2013.75  -2.2228032e-05  -2.1640622e-05  -2.2227717e-05  -4.8840153e-06  -6.2746607e-06   -6.819575e-06   -6.274106e-06  -4.7282426e-06  -8.3702921e-06  -5.3409366e-06  -4.3992338e-06  -5.3409366e-06  -8.7393329e-06
           2014  -2.2362457e-05  -2.1748076e-05  -2.2362404e-05  -4.4676622e-06  -6.0134287e-06  -6.6116821e-06  -6.0131095e-06  -4.2937583e-06  -8.6100095e-06  -5.4925217e-06   -4.526014e-06  -5.4925217e-06  -8.9910101e-06
        2014.25  -2.2464908e-05  -2.1823409e-05  -2.2464855e-05  -4.0234195e-06  -5.7191146e-06  -6.3654535e-06  -5.7188176e-06  -3.8320845e-06  -8.8130196e-06  -5.6065302e-06  -4.6155214e-06  -5.6065302e-06  -9.2059142e-06
         2014.5  -2.2541656e-05  -2.1873186e-05  -2.2541624e-05  -3.5616763e-06  -5.4019518e-06  -6.0949424e-06  -5.4016227e-06  -3.3537509e-06  -8.9950232e-06   -5.697805e-06  -4.6825387e-06   -5.697805e-06  -9.4000776e-06
        2014.75  -2.2589774e-05  -2.1894499e-05  -2.2589596e-05  -3.0812798e-06  -5.0607353e-06  -5.7921831e-06  -5.0602344e-06  -2.8573322e-06  -9.1471407e-06  -5.7571979e-06  -4.7177457e-06  -5.7571979e-06  -9.5640964e-06
           2015  -2.2614685e-05  -2.1892774e-05  -2.2614568e-05  -2.5834336e-06  -4.6957938e-06  -5.4629866e-06  -4.6953838e-06  -2.3448912e-06  -9.2733903e-06  -5.7889568e-06  -4.7244032e-06  -5.7889568e-06  -9.7031734e-06
        2015.25  -2.2624527e-05  -2.1875887e-05   -2.262438e-05  -2.0751183e-06  -4.3136141e-06  -5.1157505e-06  -4.3131943e-06   -1.822737e-06   -9.379279e-06  -5.7956228e-06  -4.7039367e-06  -5.7956228e-06  -9.8223664e-06
         2015.5  -2.2620814e-05  -2.1845526e-05  -2.2620658e-05  -1.5623148e-06   -3.922039e-06  -4.7604753e-06  -3.9215799e-06  -1.2968955e-06  -9.4818133e-06   -5.794539e-06  -4.6744469e-06   -5.794539e-06  -9.9385028e-06
        2015.75  -2.2611559e-05  -2.1809672e-05  -2.2611234e-05  -1.0560932e-06  -3.5304308e-06   -4.406591e-06  -3.5298495e-06   -7.785079e-07  -9.5868227e-06  -5.7935307e-06  -4.6454459e-06  -5.7935307e-06  -1.0058122e-05
           2016  -2.2602638e-05  -2.1774339e-05  -2.2602104e-05  -5.6432257e-07  -3.1457073e-06  -4.0617588e-06  -3.1448831e-06  -2.7530469e-07  -9.7004001e-06  -5.8000708e-06  -4.6255931e-06  -5.8000708e-06  -1.0185354e-05
        2016.25  -2.2622208e-05  -2.1768043e-05  -2.2621766e-05  -1.1775559e-07  -2.7997747e-06  -3.7540977e-06  -2.7990298e-06   1.8110493e-07  -9.8448834e-06  -5.8363487e-06  -4.6355678e-06  -5.8363487e-06  -1.0344019e-05
         2016.5  -2.2669168e-05  -2.1789468e-05  -2.2668823e-05   2.8562144e-07  -2.4906825e-06  -3.4794247e-06  -2.4900744e-06    5.932435e-07  -1.0022325e-05  -5.9045031e-06  -4.6771941e-06  -5.9045031e-06  -1.0535747e-05
        2016.75   -2.271699e-05  -2.1812018e-05  -2.2716792e-05    6.729328e-07  -2.1904237e-06  -3.2085216e-06  -2.1899554e-06   9.8864069e-07  -1.0202438e-05  -5.9729886e-06  -4.7169703e-06  -5.9729886e-06  -1.0730154e-05
           2017  -2.2764035e-05  -2.1833746e-05   -2.276382e-05   1.0526707e-06  -1.8916863e-06  -2.9352235e-06  -1.8912112e-06   1.3756957e-06  -1.0372483e-05  -6.0282253e-06  -4.7399572e-06  -6.0282253e-06  -1.0915069e-05
        2017.25  -2.2797901e-05  -2.1842367e-05  -2.2797702e-05   1.4383127e-06  -1.5796723e-06   -2.647642e-06  -1.5791963e-06   1.7675513e-06  -1.0515152e-05  -6.0581607e-06  -4.7388145e-06  -6.0581607e-06  -1.1072643e-05
         2017.5  -2.2845399e-05  -2.1864942e-05  -2.2845305e-05   1.7931596e-06  -1.2919518e-06   -2.383423e-06  -1.2915938e-06   2.1275443e-06  -1.0692614e-05  -6.1192193e-06  -4.7718262e-06  -6.1192193e-06  -1.1266373e-05
        2017.75  -2.2900061e-05  -2.1894936e-05  -2.2900005e-05   2.1265566e-06     -1.0179e-06  -2.1315161e-06  -1.0175821e-06   2.4652305e-06  -1.0871761e-05  -6.1795763e-06  -4.8061507e-06  -6.1795763e-06  -1.1462391e-05
           2018  -2.2977024e-05  -2.1947551e-05  -2.2976879e-05    2.418429e-06  -7.7704347e-07  -1.9123095e-06   -7.766296e-07    2.760709e-06  -1.1079454e-05   -6.265745e-06  -4.8661597e-06   -6.265745e-06  -1.1686759e-05
        2018.25  -2.3087142e-05  -2.2033631e-05  -2.3087024e-05    2.663154e-06  -5.7680381e-07  -1.7339146e-06  -5.7649127e-07   3.0079999e-06  -1.1313268e-05  -6.3744643e-06  -4.9462747e-06  -6.3744643e-06  -1.1938041e-05
         2018.5  -2.3229295e-05  -2.2152052e-05  -2.3229145e-05    2.858175e-06  -4.2092857e-07  -1.5975341e-06  -4.2060795e-07   3.2050343e-06   -1.158105e-05  -6.5143333e-06  -5.0500449e-06  -6.5143333e-06  -1.2222096e-05
        2018.75  -2.3388817e-05  -2.2287991e-05  -2.3388482e-05    3.024269e-06  -2.8730412e-07  -1.4872268e-06  -2.8682514e-07   3.3732799e-06  -1.1851932e-05  -6.6562742e-06  -5.1508366e-06  -6.6562742e-06  -1.2508007e-05
           2019   -2.354824e-05  -2.2424061e-05  -2.3547716e-05   3.1757323e-06  -1.6325607e-07  -1.3799375e-06  -1.6263485e-07   3.5257846e-06  -1.2116404e-05  -6.7987172e-06  -5.2498729e-06  -6.7987172e-06  -1.2790052e-05
        2019.25  -2.3708233e-05  -2.2561202e-05  -2.3708008e-05   3.3130426e-06  -4.5619962e-08  -1.2741622e-06    -4.52335e-08   3.6621309e-06  -1.2365796e-05  -6.9349536e-06  -5.3537176e-06  -6.9349536e-06  -1.3058853e-05
         2019.5  -2.3890799e-05  -2.2721065e-05  -2.3890304e-05   3.4093518e-06    3.649279e-08  -1.1984138e-06   3.7050225e-08   3.7583377e-06  -1.2660274e-05  -7.1050912e-06  -5.4991205e-06  -7.1050912e-06  -1.3375513e-05
        2019.75  -2.4073621e-05   -2.288167e-05  -2.4073272e-05   3.4876422e-06   1.0720146e-07  -1.1320266e-06   1.0755156e-07   3.8349051e-06  -1.2965207e-05  -7.2790419e-06  -5.6505233e-06  -7.2790419e-06  -1.3701022e-05
           2020  -2.4208743e-05  -2.2994756e-05  -2.4208146e-05   3.5971559e-06   2.1443411e-07  -1.0304445e-06   2.1491168e-07   3.9429556e-06  -1.3231754e-05  -7.4095636e-06  -5.7548366e-06  -7.4095636e-06  -1.3983329e-05
        2020.25  -2.4313552e-05  -2.3078161e-05   -2.431324e-05   3.7211745e-06    3.407048e-07  -9.1122547e-07   3.4097405e-07   4.0647458e-06  -1.3473165e-05  -7.5037708e-06  -5.8054753e-06  -7.5037708e-06  -1.4240996e-05
         2020.5  -2.4401977e-05  -2.3145394e-05  -2.4401637e-05   3.8455399e-06   4.7106551e-07  -7.8824118e-07   4.7131576e-07   4.1867593e-06   -1.369929e-05  -7.5722655e-06  -5.8356896e-06  -7.5722655e-06  -1.4485201e-05
        2020.75  -2.4476255e-05  -2.3198992e-05  -2.4476104e-05   3.9689724e-06    6.046421e-07  -6.6176359e-07   6.0474686e-07   4.3070787e-06  -1.3902252e-05  -7.6363969e-06  -5.8364889e-06  -7.6363969e-06  -1.4700771e-05
           2021  -2.4538422e-05   -2.324073e-05   -2.453841e-05   4.0926669e-06   7.4384992e-07  -5.1996305e-07   7.4385174e-07   4.4271299e-06  -1.4070311e-05   -7.666771e-06  -5.8299348e-06   -7.666771e-06  -1.4875835e-05
        2021.25  -2.4602819e-05   -2.328478e-05  -2.4602627e-05    4.202868e-06    8.752735e-07  -3.8262158e-07   8.7548926e-07    4.533573e-06  -1.4202155e-05  -7.6727111e-06  -5.8227512e-06  -7.6727111e-06   -1.500718e-05
         2021.5  -2.4661911e-05  -2.3323949e-05  -2.4661785e-05   4.3055834e-06   1.0041688e-06  -2.4345032e-07   1.0043114e-06   4.6313015e-06  -1.4318261e-05  -7.6737698e-06  -5.8143538e-06  -7.6737698e-06  -1.5128066e-05
        2021.75  -2.4732217e-05  -2.3374693e-05   -2.473213e-05   4.3816857e-06   1.1121342e-06  -1.2575029e-07   1.1121468e-06   4.7024723e-06  -1.4427992e-05   -7.680517e-06  -5.8177931e-06   -7.680517e-06  -1.5244716e-05
           2022  -2.4830233e-05   -2.345349e-05   -2.483012e-05   4.4160438e-06   1.1819267e-06  -4.8007222e-08   1.1819856e-06   4.7310099e-06   -1.457192e-05  -7.7213474e-06  -5.8444808e-06  -7.7213474e-06  -1.5402001e-05
        2022.25  -2.4956814e-05  -2.3561322e-05  -2.4956647e-05   4.4051339e-06   1.2084232e-06  -1.5334305e-08   1.2085256e-06   4.7146781e-06  -1.4740593e-05  -7.8287149e-06  -5.9057673e-06  -7.8287149e-06  -1.5587665e-05
         2022.5  -2.5081924e-05   -2.366818e-05  -2.5081731e-05   4.3812611e-06   1.2230072e-06   4.0158962e-09   1.2231244e-06   4.6853913e-06  -1.4904373e-05  -7.9167775e-06  -5.9557665e-06  -7.9167775e-06   -1.575233e-05
        2022.75  -2.5197626e-05  -2.3766104e-05  -2.5197449e-05   4.3522419e-06   1.2339191e-06   2.2529126e-08   1.2340377e-06   4.6508579e-06  -1.5032212e-05  -7.9261424e-06  -5.9657875e-06  -7.9261424e-06  -1.5873625e-05
           2023  -2.5328867e-05  -2.3879879e-05  -2.5328714e-05   4.2950188e-06   1.2210871e-06   2.2732166e-08    1.221226e-06   4.5877801e-06  -1.5131542e-05  -7.9439292e-06  -5.9894033e-06  -7.9439292e-06  -1.5963076e-05
        2023.25  -2.5486115e-05  -2.4020015e-05  -2.5486128e-05   4.2020064e-06   1.1773653e-06  -5.2291842e-09   1.1772507e-06   4.4884276e-06  -1.5192532e-05  -7.9700753e-06  -6.0245913e-06  -7.9700753e-06  -1.6032061e-05
         2023.5  -2.5664695e-05  -2.4181791e-05  -2.5664747e-05    4.074639e-06   1.1038804e-06  -6.1204671e-08   1.1037337e-06   4.3542156e-06  -1.5241827e-05  -8.0106363e-06  -6.0693456e-06  -8.0106363e-06  -1.6094831e-05
        2023.75  -2.5833794e-05  -2.4334383e-05  -2.5833865e-05   3.9518107e-06   1.0350252e-06  -1.1410451e-07   1.0348364e-06   4.2246026e-06  -1.5269302e-05  -8.0352666e-06  -6.0908637e-06  -8.0352666e-06  -1.6134259e-05
           2024  -2.5968339e-05  -2.4452928e-05  -2.5968348e-05    3.851125e-06    9.893395e-07  -1.4785762e-07   9.8929259e-07   4.1174938e-06  -1.5260956e-05  -8.0346161e-06  -6.0860587e-06  -8.0346161e-06  -1.6130903e-05
        2024.25  -2.6064713e-05  -2.4533767e-05  -2.6064799e-05   3.7802749e-06    9.734237e-07  -1.5293665e-07   9.7322022e-07   4.0398113e-06  -1.5201382e-05  -8.0206831e-06  -6.0234296e-06  -8.0206831e-06  -1.6064606e-05
         2024.5  -2.6156128e-05  -2.4610009e-05  -2.6156167e-05   3.7015593e-06   9.4970502e-07  -1.6340594e-07   9.4931751e-07   3.9535999e-06  -1.5105718e-05  -7.9341576e-06  -5.9052112e-06  -7.9341576e-06  -1.5967212e-05
        2024.75  -2.6255278e-05  -2.4694538e-05  -2.6255284e-05   3.5990392e-06   9.0373903e-07  -1.9039788e-07   9.0358786e-07   3.8452489e-06  -1.4999163e-05   -7.802638e-06  -5.7769196e-06   -7.802638e-06  -1.5864796e-05
           2025  -2.6372199e-05   -2.479726e-05  -2.6372199e-05    3.467334e-06   8.3144546e-07  -2.3830872e-07   8.3114123e-07   3.7065583e-06   -1.490564e-05  -7.6903396e-06  -5.6651192e-06  -7.6903396e-06  -1.5767286e-05
        2025.25   -2.649515e-05  -2.4906281e-05  -2.6495128e-05    3.326148e-06   7.5136841e-07  -2.9323553e-07   7.5110116e-07   3.5586234e-06  -1.4790258e-05  -7.5495976e-06  -5.5367116e-06  -7.5495976e-06   -1.564174e-05
         2025.5  -2.6605214e-05   -2.500292e-05  -2.6605377e-05   3.1936225e-06   6.8245603e-07  -3.3821932e-07    6.820986e-07   3.4194796e-06   -1.460319e-05  -7.3782229e-06  -5.3528983e-06  -7.3782229e-06  -1.5446943e-05
        2025.75  -2.6712758e-05  -2.5097343e-05  -2.6712895e-05     3.05727e-06   6.1013186e-07  -3.8122422e-07   6.0994141e-07   3.2764789e-06   -1.443842e-05  -7.3135127e-06  -5.2565843e-06  -7.3135127e-06  -1.5271359e-05
           2026  -2.6825741e-05  -2.5197568e-05   -2.682564e-05   2.9060636e-06   5.2138481e-07  -4.4589867e-07   5.2123751e-07   3.1182331e-06   -1.426843e-05  -7.2220039e-06  -5.1707497e-06  -7.2220039e-06  -1.5076762e-05
        2026.25  -2.6916745e-05  -2.5276394e-05  -2.6916589e-05   2.7668785e-06   4.4386703e-07  -5.0305412e-07   4.4375322e-07   2.9724483e-06   -1.403395e-05  -7.0546932e-06  -5.0512949e-06  -7.0546932e-06  -1.4815372e-05
         2026.5  -2.6996306e-05  -2.5344358e-05  -2.6996147e-05   2.6252792e-06   3.6395013e-07  -5.6418501e-07   3.6378258e-07   2.8241662e-06  -1.3767787e-05  -6.8830127e-06  -4.8964335e-06  -6.8830127e-06  -1.4525727e-05
        2026.75  -2.7066389e-05  -2.5403362e-05  -2.7066328e-05   2.4842705e-06   2.8462125e-07  -6.2412017e-07   2.8438124e-07   2.6763481e-06  -1.3474022e-05  -6.7018259e-06  -4.7177516e-06  -6.7018259e-06  -1.4209008e-05
           2027  -2.7110514e-05   -2.543685e-05  -2.7110514e-05   2.3622604e-06   2.2596834e-07  -6.6295972e-07   2.2562615e-07   2.5474012e-06   -1.314339e-05  -6.4696402e-06  -4.4975894e-06  -6.4696402e-06  -1.3855102e-05
        2027.25   -2.718043e-05   -2.549633e-05  -2.7180366e-05    2.213233e-06   1.4207542e-07  -7.2127714e-07   1.4195519e-07   2.3918281e-06  -1.2806478e-05  -6.2154983e-06  -4.2823171e-06  -6.2154983e-06  -1.3489414e-05
         2027.5   -2.726579e-05  -2.5571821e-05  -2.7265874e-05   2.0495861e-06   4.3858892e-08  -7.9534822e-07   4.3768938e-08   2.2217821e-06  -1.2445247e-05  -6.0123509e-06  -4.0934214e-06  -6.0123509e-06  -1.3095884e-05
        2027.75  -2.7317189e-05  -2.5613672e-05  -2.7317304e-05   1.9153271e-06  -2.6373091e-08  -8.4311588e-07  -2.6467351e-08    2.080827e-06  -1.2022201e-05  -5.8069585e-06  -3.9102502e-06  -5.8069585e-06  -1.2645223e-05
           2028  -2.7316858e-05  -2.5604286e-05  -2.7317024e-05   1.8274229e-06  -5.0984019e-08  -8.5284824e-07  -5.1242044e-08   1.9860742e-06  -1.1512893e-05  -5.5096693e-06   -3.654239e-06  -5.5096693e-06  -1.2105231e-05
        2028.25  -2.7276764e-05  -2.5555736e-05  -2.7277128e-05   1.7720526e-06  -4.4338047e-08  -8.4321138e-07  -4.4872014e-08   1.9236779e-06  -1.0930135e-05  -5.1274947e-06  -3.3390554e-06  -5.1274947e-06  -1.1494047e-05
         2028.5  -2.7224344e-05  -2.5495229e-05  -2.7224645e-05   1.7208185e-06  -3.3266265e-08  -8.2524118e-07  -3.3667106e-08   1.8661213e-06  -1.0321548e-05  -4.7278728e-06  -3.0020217e-06  -4.7278728e-06  -1.0857416e-05
        2028.75  -2.7192694e-05  -2.5456109e-05  -2.7192886e-05   1.6396405e-06  -5.1809553e-08  -8.2029313e-07  -5.2093546e-08    1.778726e-06  -9.7285028e-06   -4.364443e-06   -2.693967e-06   -4.364443e-06  -1.0236966e-05
           2029  -2.7192048e-05  -2.5448484e-05   -2.719227e-05   1.5235719e-06  -1.0573134e-07  -8.4905891e-07  -1.0598331e-07   1.6564429e-06  -9.1618968e-06  -4.0443689e-06  -2.4211936e-06  -4.0443689e-06  -9.6448159e-06
        2029.25  -2.7221968e-05  -2.5471915e-05  -2.7222202e-05   1.3735711e-06  -1.9468872e-07  -9.1116627e-07   -1.949731e-07   1.5002719e-06  -8.6181608e-06  -3.7414437e-06  -2.1800784e-06  -3.7414437e-06  -9.0792107e-06
         2029.5  -2.7292087e-05  -2.5535995e-05  -2.7292457e-05   1.1824654e-06   -3.245944e-07  -1.0213831e-06  -3.2504113e-07   1.3026885e-06  -8.0926826e-06  -3.4216921e-06  -1.9484081e-06  -3.4216921e-06  -8.5330317e-06
        2029.75  -2.7385808e-05  -2.5623893e-05  -2.7385994e-05   9.6819199e-07  -4.7695244e-07  -1.1565256e-06  -4.7715864e-07   1.0825178e-06  -7.5647631e-06  -3.0794778e-06  -1.6870798e-06  -3.0794778e-06   -7.984662e-06
           2030   -2.748885e-05   -2.572177e-05  -2.7488909e-05   7.3682888e-07  -6.4826733e-07  -1.3120111e-06  -6.4834232e-07   8.4528815e-07  -7.0458999e-06  -2.7476575e-06  -1.4237493e-06  -2.7476575e-06  -7.4459618e-06
        2030.25  -2.7580974e-05   -2.580918e-05   -2.758098e-05   5.1586764e-07  -8.0881178e-07  -1.4483869e-06   -8.090907e-07   6.1783716e-07  -6.4965636e-06  -2.4002781e-06  -1.1129618e-06  -2.4002781e-06   -6.877769e-06
         2030.5  -2.7673754e-05  -2.5897784e-05   -2.767357e-05   2.8698082e-07   -9.775714e-07  -1.5863919e-06  -9.7770146e-07   3.8327155e-07  -5.9635764e-06  -2.0643128e-06   -8.088988e-07  -2.0643128e-06  -6.3279702e-06
        2030.75  -2.7767428e-05  -2.5987972e-05  -2.7767342e-05   5.1784028e-08  -1.1539262e-06  -1.7311593e-06   -1.154102e-06   1.4211772e-07  -5.4477426e-06  -1.7486844e-06  -5.5080721e-07  -1.7486844e-06  -5.7979078e-06
           2031   -2.785838e-05  -2.6075733e-05  -2.7858093e-05  -1.8454631e-07  -1.3317477e-06   -1.878984e-06  -1.3318116e-06  -9.9915193e-08   -4.947394e-06  -1.4466889e-06  -3.1086884e-07  -1.4466889e-06  -5.2837809e-06
        2031.25  -2.7978787e-05  -2.6194038e-05  -2.7979023e-05  -4.5354573e-07   -1.543097e-06  -2.0647559e-06  -1.5430983e-06  -3.7457096e-07  -4.4718873e-06  -1.1799137e-06  -1.1425578e-07  -1.1799137e-06  -4.7907976e-06
         2031.5  -2.8107437e-05  -2.6320523e-05   -2.810751e-05  -7.3237045e-07  -1.7644904e-06  -2.2592399e-06  -1.7647677e-06  -6.5949064e-07  -4.0089893e-06  -9.0481109e-07    9.155065e-08  -9.0481109e-07  -4.3123579e-06
        2031.75  -2.8240911e-05   -2.645242e-05  -2.8240865e-05  -1.0163178e-06  -1.9917711e-06  -2.4592185e-06  -1.9919749e-06  -9.4897395e-07  -3.5564871e-06  -6.1517343e-07   3.2365948e-07  -6.1517343e-07  -3.8481555e-06
           2032  -2.8345936e-05  -2.6556591e-05  -2.8346013e-05  -1.2722672e-06  -2.1917054e-06  -2.6376408e-06  -2.1916125e-06  -1.2101529e-06  -3.0735491e-06  -2.8562771e-07   6.0280626e-07  -2.8562771e-07  -3.3548343e-06
        2032.25  -2.8406417e-05  -2.6616591e-05  -2.8406591e-05  -1.4836705e-06  -2.3473486e-06  -2.7756028e-06  -2.3474047e-06  -1.4274603e-06  -2.5514025e-06    7.840869e-08    9.251573e-07    7.840869e-08  -2.8238676e-06
         2032.5  -2.8408842e-05  -2.6619013e-05  -2.8409098e-05  -1.6380444e-06  -2.4453386e-06  -2.8567781e-06  -2.4453659e-06  -1.5873475e-06  -1.9850208e-06   4.9150433e-07   1.2964235e-06   4.9150433e-07  -2.2487426e-06
        2032.75   -2.837335e-05  -2.6584008e-05  -2.8373605e-05  -1.7558922e-06  -2.5071475e-06  -2.8997976e-06  -2.5071987e-06  -1.7108243e-06  -1.4000079e-06   9.2647268e-07   1.6799961e-06   9.2647268e-07  -1.6564183e-06