# Probe 0 (0.15 0.05 0)
# Probe 1 (0.15 0 0)
# Probe 2 (0.15 -0.05 0)
# Probe 3 (0.35 0.1 0)
# Probe 4 (0.35 0.05 0)
# Probe 5 (0.35 0 0)
# Probe 6 (0.35 -0.05 0)
# Probe 7 (0.35 -0.1 0)
# Probe 8 (0.55 0.1 0)
# Probe 9 (0.55 -0.05 0)
# Probe 10 (0.55 0 0)
# Probe 11 (0.55 -0.05 0)
# Probe 12 (0.55 -0.1 0)
#         Probe               0               1               2               3               4               5               6               7               8               9              10              11              12
#          Time
        2000.25               (0.014046783 -0.0001136612 -2.4191226e-11)               (0.01411028 4.6842619e-06 -7.3481901e-13)               (0.014046749 0.00011366688 1.0588843e-11)               (0.014908915 0.0012451623 -7.1354495e-11)               (0.014314904 0.00058512985 -3.1520454e-11)               (0.014109568 -2.2744393e-05 -9.9873225e-13)               (0.014314936 -0.00058502058 1.9058042e-11)               (0.014958858 -0.0013056146 3.558836e-11)               (0.0098340456 0.0016795735 -3.8245677e-11)               (0.010221934 -0.0008026818 1.2476933e-11)               (0.010359647 -3.1346594e-05 -1.1257234e-12)               (0.010221934 -0.0008026818 1.2476933e-11)               (0.0097911225 -0.0017599056 2.8733739e-11)
         2000.5               (0.014023767 -0.00010795539 -2.4148595e-11)               (0.014089668 4.4939181e-06 -7.3470135e-13)               (0.014023734 0.0001079595 1.0583721e-11)               (0.014942064 0.0011970563 -7.1117445e-11)               (0.014341392 0.00056469671 -3.1460334e-11)               (0.014133073 -2.1976629e-05 -1.009918e-12)               (0.014341422 -0.00056458477 1.8886898e-11)               (0.014991654 -0.0012543809 3.4976638e-11)               (0.009877639 0.0017030311 -3.8752939e-11)               (0.010257496 -0.00081518007 1.2783267e-11)               (0.010392097 -3.1850149e-05 -1.1132391e-12)               (0.010257496 -0.00081518007 1.2783267e-11)               (0.0098355254 -0.0017841602 2.9276253e-11)
        2000.75               (0.014000745 -0.00010194752 -2.4105823e-11)               (0.014068958 4.2917741e-06 -7.3449121e-13)               (0.014000713 0.00010195011 1.0579672e-11)               (0.014973732 0.0011478519 -7.0848398e-11)               (0.014366973 0.00054384663 -3.1390282e-11)               (0.014155794 -2.1193985e-05 -1.0213595e-12)               (0.014367002 -0.00054373201 1.8706095e-11)               (0.015022778 -0.001201958 3.4336011e-11)               (0.0099217916 0.0017259833 -3.9272874e-11)               (0.01029375 -0.00082738198 1.3089264e-11)               (0.010425269 -3.2341623e-05 -1.1011844e-12)               (0.01029375 -0.00082738198 1.3089264e-11)               (0.0098804687 -0.0018079013 2.9822124e-11)
           2001               (0.013977737 -9.5642171e-05 -2.4062946e-11)               (0.01404817 4.0778835e-06 -7.3418767e-13)               (0.013977705 9.5643127e-05 1.0576699e-11)               (0.015003835 0.0010975336 -7.054607e-11)               (0.014391619 0.00052258685 -3.1310179e-11)               (0.014177719 -2.0397599e-05 -1.0330333e-12)               (0.014391648 -0.00052246969 1.85156e-11)               (0.015052115 -0.0011483378 3.3665783e-11)               (0.0099664959 0.0017484347 -3.9805215e-11)               (0.010330687 -0.00083928766 1.339487e-11)               (0.010459154 -3.2820991e-05 -1.089564e-12)               (0.010330687 -0.00083928766 1.339487e-11)               (0.0099259458 -0.0018311334 3.0371328e-11)
        2001.25               (0.01395476 -8.9044253e-05 -2.4019997e-11)               (0.014027317 3.8524513e-06 -7.3379134e-13)               (0.013954729 8.9043555e-05 1.05748e-11)               (0.015032268 0.0010461066 -7.0209684e-11)               (0.014415296 0.00050092705 -3.1219958e-11)               (0.014198824 -1.9588018e-05 -1.0449311e-12)               (0.014415324 -0.00050080739 1.8315425e-11)               (0.01507959 -0.0010935109 3.2965207e-11)               (0.010011738 0.0017703967 -4.0349988e-11)               (0.010368288 -0.00085090192 1.3700209e-11)               (0.010493735 -3.3288238e-05 -1.078382e-12)               (0.010368288 -0.00085090192 1.3700209e-11)               (0.0099719435 -0.001853868 3.0924094e-11)
         2001.5               (0.013931835 -8.2159486e-05 -2.3977004e-11)               (0.014006418 3.6156636e-06 -7.3330261e-13)               (0.013931803 8.2157127e-05 1.0573969e-11)               (0.015058975 0.00099350845 -6.9836715e-11)               (0.01443797 0.00047887347 -3.1119458e-11)               (0.014219074 -1.8764937e-05 -1.057065e-12)               (0.014437996 -0.00047875135 1.8105496e-11)               (0.015105382 -0.0010374036 3.2231961e-11)               (0.010057506 0.001791883 -4.090733e-11)               (0.010406532 -0.0008622314 1.4005485e-11)               (0.010528989 -3.3743545e-05 -1.067634e-12)               (0.010406532 -0.0008622314 1.4005485e-11)               (0.010018451 -0.0018761191 3.1480745e-11)
        2001.75               (0.013908978 -7.4993221e-05 -2.3934001e-11)               (0.013985489 3.3677161e-06 -7.3272179e-13)               (0.013908947 7.498925e-05 1.0574203e-11)               (0.015083896 0.00093974817 -6.9426441e-11)               (0.014459609 0.0004564343 -3.100856e-11)               (0.014238435 -1.7927669e-05 -1.0694555e-12)               (0.014459634 -0.00045630969 1.7885781e-11)               (0.015129585 -0.00098004975 3.1466212e-11)               (0.010103794 0.0018129104 -4.147753e-11)               (0.010445405 -0.00087328486 1.4310978e-11)               (0.0105649 -3.4187298e-05 -1.0573073e-12)               (0.010445405 -0.00087328486 1.4310978e-11)               (0.010065463 -0.0018979038 3.2041719e-11)
           2002               (0.013886208 -6.7550946e-05 -2.3891022e-11)               (0.013964545 3.1087501e-06 -7.3204878e-13)               (0.013886178 6.7545346e-05 1.0575501e-11)               (0.015106924 0.00088483876 -6.8978203e-11)               (0.014480181 0.00043362109 -3.0887221e-11)               (0.014256895 -1.7078524e-05 -1.0820499e-12)               (0.014480205 -0.00043349407 1.7656324e-11)               (0.015151474 -0.0009214585 3.0667626e-11)               (0.010150595 0.0018334969 -4.2060957e-11)               (0.010484892 -0.00088407158 1.4616998e-11)               (0.010601448 -3.462002e-05 -1.0473832e-12)               (0.010484892 -0.00088407158 1.4616998e-11)               (0.010112976 -0.0019192408 3.2607518e-11)
        2002.25               (0.01386354 -5.9838083e-05 -2.3848106e-11)               (0.013943599 2.8390989e-06 -7.3128533e-13)               (0.013863511 5.9830863e-05 1.0577863e-11)               (0.015127969 0.00082879018 -6.8491255e-11)               (0.01449966 0.00041043844 -3.0755217e-11)               (0.014274438 -1.6218189e-05 -1.0948361e-12)               (0.014499683 -0.00041030899 1.7416996e-11)               (0.015170649 -0.00086162705 2.9835534e-11)               (0.010197907 0.0018536611 -4.2658024e-11)               (0.010524981 -0.00089460045 1.492384e-11)               (0.010638619 -3.5041894e-05 -1.0378559e-12)               (0.010524981 -0.00089460045 1.492384e-11)               (0.010160986 -0.0019401495 3.3178672e-11)
         2002.5               (0.013840994 -5.1861224e-05 -2.380528e-11)               (0.013922669 2.5591852e-06 -7.3043382e-13)               (0.013840965 5.1852361e-05 1.0581279e-11)               (0.01514692 0.00077160546 -6.7964678e-11)               (0.014518026 0.000386896 -3.0612445e-11)               (0.014291045 -1.5346894e-05 -1.1078153e-12)               (0.014518046 -0.00038676425 1.716779e-11)               (0.01518702 -0.00080049377 2.8967838e-11)               (0.010245723 0.0018734189 -4.3269061e-11)               (0.010565658 -0.00090487838 1.5231726e-11)               (0.010676398 -3.5453311e-05 -1.0287107e-12)               (0.010565658 -0.00090487838 1.5231726e-11)               (0.010209487 -0.0019606464 3.3755624e-11)
        2002.75               (0.013818585 -4.3627622e-05 -2.3762567e-11)               (0.013901772 2.2686638e-06 -7.2948932e-13)               (0.013818557 4.3617139e-05 1.0585734e-11)               (0.015163608 0.00071326656 -6.7397e-11)               (0.014535248 0.00036300691 -3.0458881e-11)               (0.014306679 -1.4458652e-05 -1.1211388e-12)               (0.014535267 -0.00036287291 1.6908774e-11)               (0.015200668 -0.00073809157 2.8064677e-11)               (0.010294032 0.0018927802 -4.3894191e-11)               (0.010606909 -0.00091490774 1.5540709e-11)               (0.010714768 -3.585424e-05 -1.0199488e-12)               (0.010606909 -0.00091490774 1.5540709e-11)               (0.01025847 -0.0019807422 3.4338596e-11)
           2003               (0.013796333 -3.514453e-05 -2.3719994e-11)               (0.013880923 1.9694477e-06 -7.284699e-13)               (0.013796305 3.5132464e-05 1.0591214e-11)               (0.015177933 0.00065381672 -6.67883e-11)               (0.014551292 0.00033878703 -3.0294564e-11)               (0.014321331 -1.3554924e-05 -1.1347754e-12)               (0.014551309 -0.00033865079 1.6640075e-11)               (0.015211556 -0.00067459439 2.7129429e-11)               (0.010342821 0.0019117484 -4.4533294e-11)               (0.010648719 -0.00092468668 1.5850686e-11)               (0.010753715 -3.62445e-05 -1.0115768e-12)               (0.010648719 -0.00092468668 1.5850686e-11)               (0.010307922 -0.0020004408 3.4927578e-11)
        2003.25               (0.013774255 -2.6419502e-05 -2.3677584e-11)               (0.013860132 1.6565069e-06 -7.2732123e-13)               (0.013774227 2.6405864e-05 1.0597704e-11)               (0.015189452 0.00059342424 -6.6141873e-11)               (0.014566122 0.00031425589 -3.0119615e-11)               (0.01433497 -1.2632017e-05 -1.1488254e-12)               (0.014566138 -0.00031411753 1.6361909e-11)               (0.015219987 -0.00061026783 2.6167695e-11)               (0.010392083 0.0019303245 -4.5186188e-11)               (0.010691078 -0.00093421276 1.6161535e-11)               (0.01079323 -3.6623987e-05 -1.0035974e-12)               (0.010691078 -0.00093421276 1.6161535e-11)               (0.010357836 -0.0020197439 3.5522488e-11)
         2003.5               (0.01375237 -1.7460438e-05 -2.3635362e-11)               (0.013839372 1.3303027e-06 -7.2604306e-13)               (0.013752343 1.744523e-05 1.0605186e-11)               (0.015199131 0.00053219625 -6.5459482e-11)               (0.014579717 0.00028942545 -2.9933961e-11)               (0.014347627 -1.1699183e-05 -1.1630747e-12)               (0.014579731 -0.00028928507 1.6074301e-11)               (0.015225683 -0.00054514023 2.5179448e-11)               (0.010441823 0.0019485109 -4.5852777e-11)               (0.010733984 -0.00094348481 1.6473189e-11)               (0.010833309 -3.6992614e-05 -9.9601182e-13)               (0.010733984 -0.00094348481 1.6473189e-11)               (0.010408217 -0.0020386542 3.612331e-11)
        2003.75               (0.013730695 -8.2748034e-06 -2.3593356e-11)               (0.013818794 9.9913842e-07 -7.2472628e-13)               (0.013730669 8.2580044e-06 1.061365e-11)               (0.015206811 0.00047024676 -6.4743098e-11)               (0.01459205 0.00026430923 -2.9737561e-11)               (0.014359293 -1.0752178e-05 -1.1776414e-12)               (0.014592063 -0.00026416684 1.5777309e-11)               (0.015229243 -0.00047927316 2.4165621e-11)               (0.010492045 0.0019663101 -4.6533005e-11)               (0.010777436 -0.00095250228 1.6785608e-11)               (0.010873948 -3.735038e-05 -9.8881753e-13)               (0.010777436 -0.00095250228 1.6785608e-11)               (0.01045907 -0.0020571751 3.6730051e-11)
           2004               (0.013709248 1.1294706e-06 -2.3551592e-11)               (0.013798376 6.6392762e-07 -7.2337547e-13)               (0.013709223 -1.147573e-06 1.0623078e-11)               (0.015212186 0.00040774621 -6.3996164e-11)               (0.014603105 0.00023892712 -2.9530529e-11)               (0.014369869 -9.7755691e-06 -1.19292e-12)               (0.014603116 -0.00023878288 1.5471148e-11)               (0.015231394 -0.00041285442 2.3130124e-11)               (0.010542757 0.0019837315 -4.7227112e-11)               (0.010821433 -0.00096126863 1.7098911e-11)               (0.010915142 -3.7697321e-05 -9.8200955e-13)               (0.010821433 -0.00096126863 1.7098911e-11)               (0.010510404 -0.0020753165 3.734299e-11)
        2004.25               (0.013688044 1.0744221e-05 -2.3510096e-11)               (0.013778077 3.210566e-07 -7.2194961e-13)               (0.013688019 -1.0763852e-05 1.0633455e-11)               (0.015214583 0.00034492886 -6.3223696e-11)               (0.014612852 0.00021329182 -2.9312796e-11)               (0.014379493 -8.7832003e-06 -1.2085902e-12)               (0.014612861 -0.00021314578 1.5155849e-11)               (0.015232878 -0.00034602154 2.2075576e-11)               (0.01059396 0.0020007868 -4.7935464e-11)               (0.010865966 -0.00096978912 1.7413288e-11)               (0.010956879 -3.8033653e-05 -9.7557548e-13)               (0.010865966 -0.00096978912 1.7413288e-11)               (0.010562222 -0.0020930907 3.796251e-11)
         2004.5               (0.013667101 2.056027e-05 -2.3468881e-11)               (0.013757907 -2.599851e-08 -7.204831e-13)               (0.013667077 -2.0581429e-05 1.0644754e-11)               (0.015215372 0.00028174272 -6.242371e-11)               (0.014621269 0.000187428 -2.9084592e-11)               (0.014388071 -7.790335e-06 -1.2242933e-12)               (0.014621276 -0.00018728027 1.483174e-11)               (0.015233167 -0.00027873965 2.1000494e-11)               (0.010645655 0.002017488 -4.8658462e-11)               (0.010911023 -0.00097806917 1.772894e-11)               (0.010999141 -3.8359613e-05 -9.6950156e-13)               (0.010911023 -0.00097806917 1.772894e-11)               (0.010614525 -0.0021105104 3.8589025e-11)
        2004.75               (0.013646436 3.0568553e-05 -2.3427966e-11)               (0.013737817 -3.8864596e-07 -7.1885532e-13)               (0.013646413 -3.059119e-05 1.0656949e-11)               (0.015214735 0.0002181563 -6.1594488e-11)               (0.014628337 0.00016136347 -2.884622e-11)               (0.014395509 -6.7839917e-06 -1.2403631e-12)               (0.014628343 -0.000161214 1.4499212e-11)               (0.015232165 -0.00021102552 1.9904644e-11)               (0.010697839 0.0020338446 -4.9396433e-11)               (0.010956592 -0.00098611232 1.8046e-11)               (0.011041912 -3.8675282e-05 -9.6377942e-13)               (0.010956592 -0.00098611232 1.8046e-11)               (0.010667311 -0.002127586 3.9222864e-11)
           2005               (0.013626069 4.0759519e-05 -2.3387365e-11)               (0.013717906 -7.6158499e-07 -7.171203e-13)               (0.013626047 -4.0783572e-05 1.067001e-11)               (0.01521174 0.00015420064 -6.073603e-11)               (0.014634035 0.00013512133 -2.8597862e-11)               (0.014401411 -5.790207e-06 -1.2561596e-12)               (0.014634038 -0.0001349701 1.4158549e-11)               (0.015228819 -0.00014289394 1.8787809e-11)               (0.010750507 0.0020498634 -5.0149614e-11)               (0.011002657 -0.0009939202 1.836453e-11)               (0.011085175 -3.8980729e-05 -9.5840044e-13)               (0.011002657 -0.0009939202 1.836453e-11)               (0.010720577 -0.0021443247 3.9864276e-11)
        2005.25               (0.013606015 5.1124339e-05 -2.3347099e-11)               (0.013698152 -1.1480149e-06 -7.1524459e-13)               (0.013605994 -5.1149759e-05 1.0683916e-11)               (0.015206034 8.9953619e-05 -5.9849683e-11)               (0.014638332 0.0001087235 -2.8339666e-11)               (0.014405631 -4.836357e-06 -1.2710057e-12)               (0.014638333 -0.00010857056 1.3809999e-11)               (0.015222417 -7.4321501e-05 1.7648864e-11)               (0.010803654 0.0020655511 -5.0918266e-11)               (0.011049204 -0.0010014938 1.8684575e-11)               (0.011128909 -3.9275943e-05 -9.5335874e-13)               (0.011049204 -0.0010014938 1.8684575e-11)               (0.010774317 -0.0021607342 4.0513516e-11)
         2005.5               (0.013586287 6.165549e-05 -2.3307204e-11)               (0.013678689 -1.5376093e-06 -7.1333272e-13)               (0.013586266 -6.168233e-05 1.069866e-11)               (0.015198385 2.5491571e-05 -5.8936721e-11)               (0.014641195 8.2179667e-05 -2.8071473e-11)               (0.014408432 -3.8988384e-06 -1.2855006e-12)               (0.014641194 -8.2025157e-05 1.3453521e-11)               (0.015212276 -5.3564186e-06 1.6488408e-11)               (0.010857273 0.0020809125 -5.1702591e-11)               (0.011096217 -0.0010088334 1.9006152e-11)               (0.0111731 -3.9560974e-05 -9.4864547e-13)               (0.011096217 -0.0010088334 1.9006152e-11)               (0.010828527 -0.0021768198 4.1170789e-11)
        2005.75               (0.013566896 7.234446e-05 -2.3267707e-11)               (0.013659489 -1.9313615e-06 -7.1137056e-13)               (0.013566876 -7.2372613e-05 1.0714223e-11)               (0.015188471 -3.92063e-05 -5.7995959e-11)               (0.014642599 5.5509906e-05 -2.7793387e-11)               (0.014410096 -2.9689808e-06 -1.2998561e-12)               (0.014642597 -5.5353838e-05 1.3089317e-11)               (0.015197566 6.4003081e-05 1.5305787e-11)               (0.010911367 0.0020959503 -5.2502737e-11)               (0.011143693 -0.0010159382 1.932925e-11)               (0.01121774 -3.9835608e-05 -9.4426109e-13)               (0.011143693 -0.0010159382 1.932925e-11)               (0.01088321 -0.0021925848 4.1836218e-11)
           2006               (0.013547855 8.3181839e-05 -2.3228624e-11)               (0.01364053 -2.3348706e-06 -7.0929575e-13)               (0.013547836 -8.3211266e-05 1.0730579e-11)               (0.015174675 -0.0001041944 -5.7025253e-11)               (0.014642524 2.8741662e-05 -2.7505697e-11)               (0.014410699 -2.0308531e-06 -1.3144673e-12)               (0.014642519 -2.858417e-05 1.2717775e-11)               (0.015177971 0.00013360603 1.4103898e-11)               (0.010965937 0.0021106658 -5.3318801e-11)               (0.011191624 -0.0010228076 1.9653859e-11)               (0.011262817 -4.0099896e-05 -9.4019522e-13)               (0.011191624 -0.0010228076 1.9653859e-11)               (0.010938367 -0.0022080308 4.2509888e-11)
        2006.25               (0.013529179 9.4157202e-05 -2.3189962e-11)               (0.013621825 -2.7487827e-06 -7.0709978e-13)               (0.013529161 -9.418788e-05 1.0747693e-11)               (0.015156545 -0.00016944379 -5.6024658e-11)               (0.014640954 1.9045802e-06 -2.7208741e-11)               (0.014410349 -1.1285791e-06 -1.3282473e-12)               (0.014640947 -1.7457121e-06 1.2339328e-11)               (0.01515344 0.00020338758 1.2883568e-11)               (0.011020985 0.0021250565 -5.4150759e-11)               (0.011240002 -0.0010294395 1.997992e-11)               (0.011308324 -4.0353757e-05 -9.3644226e-13)               (0.011240002 -0.0010294395 1.997992e-11)               (0.010994003 -0.0022231555 4.3191749e-11)
         2006.5               (0.013510883 0.00010526029 -2.3151729e-11)               (0.013603369 -3.1591628e-06 -7.0493187e-13)               (0.013510866 -0.00010529218 1.076553e-11)               (0.01513498 -0.00023487354 -5.4995547e-11)               (0.014637876 -2.4986449e-05 -2.6902488e-11)               (0.014409566 -1.8214778e-07 -1.3431523e-12)               (0.014637867 2.5146255e-05 1.195406e-11)               (0.015125625 0.00027324726 1.1646479e-11)               (0.011076521 0.0021391179 -5.4998519e-11)               (0.011288829 -0.001035831 2.0307355e-11)               (0.011354256 -4.0597039e-05 -9.3299854e-13)               (0.011288829 -0.001035831 2.0307355e-11)               (0.011050126 -0.0022379542 4.3881672e-11)
        2006.75               (0.013492985 0.00011648072 -2.3113936e-11)               (0.013585189 -3.5731125e-06 -7.0271262e-13)               (0.013492968 -0.00011651375 1.0784056e-11)               (0.01511055 -0.00030046181 -5.3937684e-11)               (0.014633275 -5.1922115e-05 -2.6586771e-11)               (0.014408126 8.1009301e-07 -1.3592209e-12)               (0.014633263 5.2082729e-05 1.1561908e-11)               (0.015095224 0.00034313429 1.0393176e-11)               (0.011132551 0.0021528441 -5.586196e-11)               (0.0113381 -0.001041979 2.0636073e-11)               (0.011400607 -4.0829659e-05 -9.2985717e-13)               (0.0113381 -0.001041979 2.0636073e-11)               (0.011106745 -0.002252421 4.4579499e-11)
           2007               (0.013475499 0.0001278084 -2.3076593e-11)               (0.013567305 -3.9930689e-06 -7.0041373e-13)               (0.013475483 -0.00012784259 1.0803241e-11)               (0.015083472 -0.00036610147 -5.2853243e-11)               (0.014627134 -7.8876793e-05 -2.6261823e-11)               (0.014405739 1.7758032e-06 -1.3746921e-12)               (0.014627121 7.9038239e-05 1.1163201e-11)               (0.015062423 0.00041299381 9.1243376e-12)               (0.011189087 0.0021662331 -5.674113e-11)               (0.011387813 -0.0010478822 2.0966058e-11)               (0.011447369 -4.1051573e-05 -9.2700933e-13)               (0.011387813 -0.0010478822 2.0966058e-11)               (0.011163873 -0.0022665539 4.5285232e-11)
        2007.25               (0.013458437 0.00013923411 -2.3039722e-11)               (0.013549731 -4.418549e-06 -6.9803842e-13)               (0.013458422 -0.00013926945 1.0823062e-11)               (0.015053878 -0.00043170672 -5.1743928e-11)               (0.014619437 -0.00010581786 -2.5928059e-11)               (0.014402233 2.754816e-06 -1.390562e-12)               (0.01461942 0.00010598008 1.0758445e-11)               (0.015027307 0.00048275309 7.8410661e-12)               (0.011246133 0.0021792872 -5.7636264e-11)               (0.01143796 -0.0010535406 2.1297353e-11)               (0.011494529 -4.1262781e-05 -9.2444388e-13)               (0.01143796 -0.0010535406 2.1297353e-11)               (0.011221515 -0.0022803554 4.5999047e-11)
         2007.5               (0.013441809 0.00015074791 -2.3003337e-11)               (0.013532489 -4.8478387e-06 -6.9560303e-13)               (0.013441795 -0.0001507844 1.0843492e-11)               (0.01502188 -0.00049719281 -5.0611383e-11)               (0.014610166 -0.00013270758 -2.5586015e-11)               (0.014397581 3.769801e-06 -1.4073963e-12)               (0.014610148 0.00013287063 1.0348263e-11)               (0.014989913 0.00055228204 6.5458408e-12)               (0.011303688 0.0021920088 -5.8547633e-11)               (0.011488527 -0.0010589543 2.1630003e-11)               (0.01154207 -4.1463276e-05 -9.2214941e-13)               (0.011488527 -0.0010589543 2.1630003e-11)               (0.011279673 -0.0022938283 4.6721148e-11)
        2007.75               (0.013425625 0.00016234059 -2.296746e-11)               (0.013515586 -5.281612e-06 -6.9309774e-13)               (0.013425612 -0.00016237815 1.0864508e-11)               (0.014987536 -0.00056239659 -4.9459203e-11)               (0.014599311 -0.00015951807 -2.5235982e-11)               (0.014391317 4.7770974e-06 -1.4241322e-12)               (0.01459929 0.00015968186 9.9330448e-12)               (0.014950206 0.00062135403 5.2434723e-12)               (0.01136175 0.0022044001 -5.9475493e-11)               (0.0115395 -0.0010641233 2.1964053e-11)               (0.011589974 -4.1653023e-05 -9.2011514e-13)               (0.0115395 -0.0010641233 2.1964053e-11)               (0.011338343 -0.0023069748 4.7451727e-11)
           2008               (0.013409894 0.00017400255 -2.2932105e-11)               (0.01349903 -5.7199367e-06 -6.9051984e-13)               (0.013409881 -0.00017404119 1.0886085e-11)               (0.014950806 -0.00062713017 -4.8291669e-11)               (0.014586875 -0.00018623104 -2.4878015e-11)               (0.014383182 5.7866271e-06 -1.4410449e-12)               (0.014586852 0.00018639534 9.5129506e-12)               (0.014908064 0.00068976808 3.9382933e-12)               (0.011420315 0.0022164588 -6.0419955e-11)               (0.011590868 -0.001069046 2.2299498e-11)               (0.011638227 -4.1831939e-05 -9.1833198e-13)               (0.011590868 -0.001069046 2.2299498e-11)               (0.011397524 -0.0023197929 4.8190819e-11)
        2008.25               (0.013394625 0.0001857236 -2.2897283e-11)               (0.013482834 -6.1622997e-06 -6.8787283e-13)               (0.013394614 -0.00018576343 1.0908191e-11)               (0.014911571 -0.00069126992 -4.7111533e-11)               (0.014572845 -0.00021280819 -2.4512673e-11)               (0.014373043 6.7989879e-06 -1.4581808e-12)               (0.01457282 0.00021297265 9.0886283e-12)               (0.014863337 0.00075744449 2.6318094e-12)               (0.011479374 0.0022281809 -6.1381055e-11)               (0.011642611 -0.0010737211 2.2636334e-11)               (0.011686805 -4.2000068e-05 -9.1678521e-13)               (0.011642611 -0.0010737211 2.2636334e-11)               (0.011457207 -0.002332278 4.8938386e-11)
         2008.5               (0.013379832 0.00019749344 -2.2863001e-11)               (0.013467012 -6.6076019e-06 -6.8516662e-13)               (0.013379822 -0.00019753443 1.0930791e-11)               (0.014869782 -0.00075468956 -4.5921702e-11)               (0.014557204 -0.00023920695 -2.4140627e-11)               (0.014361404 7.821563e-06 -1.4757468e-12)               (0.014557175 0.00023937151 8.6608207e-12)               (0.014815948 0.00082428314 1.325985e-12)               (0.011538925 0.0022395553 -6.2358567e-11)               (0.011694716 -0.0010781428 2.2974398e-11)               (0.011735693 -4.2157107e-05 -9.154735e-13)               (0.011694716 -0.0010781428 2.2974398e-11)               (0.011517391 -0.0023444185 4.9694122e-11)
        2008.75               (0.013365524 0.00020930189 -2.2829267e-11)               (0.013451577 -7.0552229e-06 -6.8240594e-13)               (0.013365515 -0.00020934396 1.0953854e-11)               (0.014825388 -0.00081728258 -4.4724616e-11)               (0.014539942 -0.00026539019 -2.3762415e-11)               (0.014348409 8.8457853e-06 -1.4935432e-12)               (0.014539912 0.00026555461 8.2301545e-12)               (0.014765831 0.00089018351 2.2804702e-14)               (0.011598975 0.0022505688 -6.3352194e-11)               (0.011747178 -0.0010823045 2.33135e-11)               (0.011784881 -4.2302721e-05 -9.1439616e-13)               (0.011747178 -0.0010823045 2.33135e-11)               (0.011578083 -0.0023562001 5.045765e-11)
           2009               (0.013351715 0.000221139 -2.2796092e-11)               (0.013436542 -7.504823e-06 -6.7959254e-13)               (0.013351707 -0.00022118202 1.0977346e-11)               (0.014778344 -0.0008789432 -4.3522737e-11)               (0.014521063 -0.00029132689 -2.3378431e-11)               (0.014334126 9.8516002e-06 -1.511077e-12)               (0.01452103 0.00029149107 7.7971077e-12)               (0.014712948 0.00095503483 -1.275473e-12)               (0.01165954 0.002261206 -6.4361559e-11)               (0.011800003 -0.0010861985 2.3653412e-11)               (0.011834368 -4.2436604e-05 -9.1355107e-13)               (0.011800003 -0.0010861985 2.3653412e-11)               (0.011639302 -0.0023676067 5.1228521e-11)
        2009.25               (0.013338413 0.00023299519 -2.2763488e-11)               (0.013421913 -7.9561791e-06 -6.7672715e-13)               (0.013338405 -0.00023303915 1.1001243e-11)               (0.014728626 -0.00093955708 -4.2318782e-11)               (0.01450058 -0.00031698071 -2.2989213e-11)               (0.014318676 1.0836647e-05 -1.528293e-12)               (0.014500545 0.0003171445 7.3622987e-12)               (0.014657311 0.0010187212 -2.5664293e-12)               (0.011720636 0.0022714537 -6.5386392e-11)               (0.011853192 -0.0010898187 2.3993965e-11)               (0.011884155 -4.255856e-05 -9.129316e-13)               (0.011853192 -0.0010898187 2.3993965e-11)               (0.011701063 -0.0023786244 5.2006385e-11)
         2009.5               (0.013325624 0.00024486062 -2.2731464e-11)               (0.013407703 -8.4087744e-06 -6.7381354e-13)               (0.013325617 -0.00024490545 1.1025514e-11)               (0.014676239 -0.0009990159 -4.1115346e-11)               (0.014478504 -0.00034231538 -2.2595305e-11)               (0.014302087 1.1793028e-05 -1.5450066e-12)               (0.014478466 0.00034247867 6.9263485e-12)               (0.014598956 0.0010811331 -3.8477586e-12)               (0.011782278 0.0022812978 -6.6426394e-11)               (0.011906752 -0.0010931581 2.4334964e-11)               (0.011934241 -4.2668332e-05 -9.1253318e-13)               (0.011906752 -0.0010931581 2.4334964e-11)               (0.011763383 -0.0023892382 5.279086e-11)
        2009.75               (0.013313358 0.00025672476 -2.2700021e-11)               (0.013393923 -8.8620381e-06 -6.7085612e-13)               (0.013313352 -0.00025677039 1.105012e-11)               (0.014621265 -0.0010572261 -3.9914681e-11)               (0.014454829 -0.00036729314 -2.2197301e-11)               (0.01428433 1.2712822e-05 -1.5610357e-12)               (0.014454789 0.00036745578 6.4899243e-12)               (0.014537976 0.0011421824 -5.1176223e-12)               (0.011844475 0.0022907252 -6.7481323e-11)               (0.011960679 -0.0010962106 2.4676254e-11)               (0.011984621 -4.2765702e-05 -9.1234939e-13)               (0.011960679 -0.0010962106 2.4676254e-11)               (0.011826272 -0.0023994339 5.3581611e-11)