# Force and moment coefficients
# dragDir       : (1.00000000e+00 0.00000000e+00 0.00000000e+00)
# sideDir       : (0.00000000e+00 0.00000000e+00 -1.00000000e+00)
# liftDir       : (0.00000000e+00 1.00000000e+00 0.00000000e+00)
# rollAxis      : (1.00000000e+00 0.00000000e+00 0.00000000e+00)
# pitchAxis     : (0.00000000e+00 0.00000000e+00 -1.00000000e+00)
# yawAxis       : (0.00000000e+00 1.00000000e+00 0.00000000e+00)
# magUInf       : 1.12500000e-02
# lRef          : 1.00000000e-01
# Aref          : 1.00000000e-02
# CofR          : (0.00000000e+00 0.00000000e+00 0.00000000e+00)
#
# Time          	Cd              	Cd(f)           	Cd(r)           	Cl              	Cl(f)           	Cl(r)           	CmPitch         	CmRoll          	CmYaw           	Cs              	Cs(f)           	Cs(r)           
2000.25         	1.74754041e+00	8.73770219e-01	8.73770189e-01	3.61061941e-02	4.37770356e+00	-4.34159737e+00	4.35965046e+00	1.51866355e-08	3.87792155e-09	-5.04804509e-09	1.35389900e-09	-6.40194409e-09
2000.5          	1.74789488e+00	8.73947453e-01	8.73947423e-01	2.79567669e-02	4.36995149e+00	-4.34199472e+00	4.35597310e+00	1.51808651e-08	3.87731345e-09	-5.04626505e-09	1.35418093e-09	-6.40044598e-09
2000.75         	1.74828654e+00	8.74143285e-01	8.74143255e-01	1.98295160e-02	4.36231308e+00	-4.34248356e+00	4.35239832e+00	1.51750311e-08	3.87664338e-09	-5.04445457e-09	1.35441610e-09	-6.39887066e-09
2001            	1.74867972e+00	8.74339876e-01	8.74339845e-01	1.17090016e-02	4.35470362e+00	-4.34299462e+00	4.34884912e+00	1.51691367e-08	3.87591184e-09	-5.04261455e-09	1.35460457e-09	-6.39721912e-09
2001.25         	1.74904904e+00	8.74524535e-01	8.74524505e-01	3.61876442e-03	4.34706961e+00	-4.34345084e+00	4.34526023e+00	1.51631860e-08	3.87511943e-09	-5.04074619e-09	1.35474633e-09	-6.39549252e-09
2001.5          	1.74941972e+00	8.74709873e-01	8.74709842e-01	-4.45227751e-03	4.33947041e+00	-4.34392268e+00	4.34169655e+00	1.51571847e-08	3.87426676e-09	-5.03885128e-09	1.35484112e-09	-6.39369240e-09
2001.75         	1.74987173e+00	8.74935878e-01	8.74935848e-01	-1.24360813e-02	4.33215839e+00	-4.34459447e+00	4.33837643e+00	1.51511394e-08	3.87335471e-09	-5.03693190e-09	1.35488876e-09	-6.39182066e-09
2002            	1.75032129e+00	8.75160658e-01	8.75160627e-01	-2.03619144e-02	4.32490889e+00	-4.34527081e+00	4.33508985e+00	1.51450549e-08	3.87238403e-09	-5.03498953e-09	1.35488927e-09	-6.38987879e-09
2002.25         	1.75077546e+00	8.75387744e-01	8.75387714e-01	-2.82493880e-02	4.31771902e+00	-4.34596841e+00	4.33184371e+00	1.51389350e-08	3.87135556e-09	-5.03302529e-09	1.35484291e-09	-6.38786820e-09
2002.5          	1.75123534e+00	8.75617685e-01	8.75617655e-01	-3.60646220e-02	4.31062300e+00	-4.34668762e+00	4.32865531e+00	1.51327833e-08	3.87026999e-09	-5.03104017e-09	1.35474990e-09	-6.38579007e-09
2002.75         	1.75170525e+00	8.75852643e-01	8.75852612e-01	-4.38079464e-02	4.30363125e+00	-4.34743920e+00	4.32553523e+00	1.51266033e-08	3.86912806e-09	-5.02903534e-09	1.35461039e-09	-6.38364573e-09
2003            	1.75217506e+00	8.76087548e-01	8.76087517e-01	-5.14722264e-02	4.29672368e+00	-4.34819591e+00	4.32245980e+00	1.51203978e-08	3.86793054e-09	-5.02701146e-09	1.35442481e-09	-6.38143628e-09
2003.25         	1.75265431e+00	8.76327172e-01	8.76327142e-01	-5.90590863e-02	4.28992455e+00	-4.34898363e+00	4.31945409e+00	1.51141709e-08	3.86667823e-09	-5.02496993e-09	1.35419326e-09	-6.37916319e-09
2003.5          	1.75315375e+00	8.76576889e-01	8.76576858e-01	-6.65733808e-02	4.28325549e+00	-4.34982887e+00	4.31654218e+00	1.51079272e-08	3.86537181e-09	-5.02291217e-09	1.35391572e-09	-6.37682789e-09
2003.75         	1.75367148e+00	8.76835757e-01	8.76835727e-01	-7.39868981e-02	4.27674439e+00	-4.35073129e+00	4.31373784e+00	1.51016707e-08	3.86401206e-09	-5.02083939e-09	1.35359236e-09	-6.37443175e-09
2004            	1.75419059e+00	8.77095311e-01	8.77095281e-01	-8.13051291e-02	4.27033833e+00	-4.35164346e+00	4.31099090e+00	1.50954040e-08	3.86259998e-09	-5.01875229e-09	1.35322384e-09	-6.37197613e-09
2004.25         	1.75472490e+00	8.77362467e-01	8.77362437e-01	-8.85274910e-02	4.26407671e+00	-4.35260420e+00	4.30834046e+00	1.50891307e-08	3.86113662e-09	-5.01665188e-09	1.35281068e-09	-6.36946256e-09
2004.5          	1.75526355e+00	8.77631788e-01	8.77631758e-01	-9.56518344e-02	4.25793271e+00	-4.35358454e+00	4.30575863e+00	1.50828576e-08	3.85962298e-09	-5.01454050e-09	1.35235273e-09	-6.36689324e-09
2004.75         	1.75583036e+00	8.77915193e-01	8.77915163e-01	-1.02672302e-01	4.25197448e+00	-4.35464679e+00	4.30331063e+00	1.50765909e-08	3.85805997e-09	-5.01242018e-09	1.35184988e-09	-6.36427006e-09
2005            	1.75635570e+00	8.78177866e-01	8.78177836e-01	-1.09594564e-01	4.24602121e+00	-4.35561578e+00	4.30081850e+00	1.50703344e-08	3.85644863e-09	-5.01029206e-09	1.35130260e-09	-6.36159466e-09
2005.25         	1.75691284e+00	8.78456434e-01	8.78456404e-01	-1.16387671e-01	4.24028760e+00	-4.35667527e+00	4.29848144e+00	1.50640913e-08	3.85478999e-09	-5.00815715e-09	1.35071142e-09	-6.35886857e-09
2005.5          	1.75747345e+00	8.78736742e-01	8.78736712e-01	-1.23038815e-01	4.23471701e+00	-4.35775583e+00	4.29623642e+00	1.50578676e-08	3.85308541e-09	-5.00601744e-09	1.35007669e-09	-6.35609413e-09
2005.75         	1.75802412e+00	8.79012073e-01	8.79012043e-01	-1.29553617e-01	4.22927124e+00	-4.35882486e+00	4.29404805e+00	1.50516684e-08	3.85133627e-09	-5.00387467e-09	1.34939893e-09	-6.35327360e-09
2006            	1.75854836e+00	8.79274194e-01	8.79274164e-01	-1.35917053e-01	4.22392176e+00	-4.35983881e+00	4.29188029e+00	1.50454999e-08	3.84954405e-09	-5.00173091e-09	1.34867859e-09	-6.35040950e-09
2006.25         	1.75908664e+00	8.79543334e-01	8.79543304e-01	-1.42151712e-01	4.21874816e+00	-4.36089987e+00	4.28982402e+00	1.50393699e-08	3.84771015e-09	-4.99958888e-09	1.34791571e-09	-6.34750459e-09
2006.5          	1.75964862e+00	8.79824326e-01	8.79824296e-01	-1.48247577e-01	4.21378335e+00	-4.36203092e+00	4.28790714e+00	1.50332847e-08	3.84583568e-09	-4.99745078e-09	1.34711028e-09	-6.34456107e-09
2006.75         	1.76016730e+00	8.80083667e-01	8.80083637e-01	-1.54219180e-01	4.20884807e+00	-4.36306725e+00	4.28595766e+00	1.50272458e-08	3.84392174e-09	-4.99531707e-09	1.34626321e-09	-6.34158027e-09
2007            	1.76072147e+00	8.80360751e-01	8.80360721e-01	-1.60045316e-01	4.20415834e+00	-4.36420365e+00	4.28418100e+00	1.50212543e-08	3.84196947e-09	-4.99318787e-09	1.34537554e-09	-6.33856341e-09
2007.25         	1.76122821e+00	8.80614121e-01	8.80614091e-01	-1.65711398e-01	4.19952671e+00	-4.36523811e+00	4.28238241e+00	1.50153137e-08	3.83998010e-09	-4.99106438e-09	1.34444791e-09	-6.33551229e-09
2007.5          	1.76173972e+00	8.80869874e-01	8.80869844e-01	-1.71207756e-01	4.19508857e+00	-4.36629633e+00	4.28069245e+00	1.50094314e-08	3.83795516e-09	-4.98894917e-09	1.34348057e-09	-6.33242975e-09
2007.75         	1.76224735e+00	8.81123689e-01	8.81123659e-01	-1.76539536e-01	4.19081854e+00	-4.36735808e+00	4.27908831e+00	1.50036120e-08	3.83589641e-09	-4.98684398e-09	1.34247443e-09	-6.32931840e-09
2008            	1.76275692e+00	8.81378474e-01	8.81378444e-01	-1.81689841e-01	4.18674940e+00	-4.36843924e+00	4.27759432e+00	1.49978587e-08	3.83380537e-09	-4.98474987e-09	1.34143044e-09	-6.32618030e-09
2008.25         	1.76321911e+00	8.81609570e-01	8.81609540e-01	-1.86664140e-01	4.18275157e+00	-4.36941571e+00	4.27608364e+00	1.49921778e-08	3.83168358e-09	-4.98266908e-09	1.34034904e-09	-6.32301812e-09
2008.5          	1.76369449e+00	8.81847262e-01	8.81847232e-01	-1.91493673e-01	4.17894278e+00	-4.37043645e+00	4.27468962e+00	1.49865755e-08	3.82953241e-09	-4.98060392e-09	1.33923045e-09	-6.31983437e-09
2008.75         	1.76415983e+00	8.82079932e-01	8.82079902e-01	-1.96148562e-01	4.17529823e+00	-4.37144679e+00	4.27337251e+00	1.49810569e-08	3.82735323e-09	-4.97855618e-09	1.33807514e-09	-6.31663132e-09
2009            	1.76463781e+00	8.82318920e-01	8.82318890e-01	-2.00657677e-01	4.17184221e+00	-4.37249989e+00	4.27217105e+00	1.49756252e-08	3.82514728e-09	-4.97652706e-09	1.33688375e-09	-6.31341081e-09
2009.25         	1.76507004e+00	8.82535035e-01	8.82535005e-01	-2.04944797e-01	4.16850879e+00	-4.37345358e+00	4.27098119e+00	1.49702841e-08	3.82291609e-09	-4.97451789e-09	1.33565715e-09	-6.31017504e-09
2009.5          	1.76551224e+00	8.82756136e-01	8.82756106e-01	-2.09076593e-01	4.16536715e+00	-4.37444375e+00	4.26990545e+00	1.49650374e-08	3.82066126e-09	-4.97253009e-09	1.33439622e-09	-6.30692630e-09
2009.75         	1.76593230e+00	8.82966163e-01	8.82966133e-01	-2.13011324e-01	4.16238405e+00	-4.37539538e+00	4.26888971e+00	1.49598871e-08	3.81838427e-09	-4.97056442e-09	1.33310206e-09	-6.30366649e-09
2010            	1.76633318e+00	8.83166603e-01	8.83166573e-01	-2.16777224e-01	4.15953818e+00	-4.37631540e+00	4.26792679e+00	1.49548384e-08	3.81608654e-09	-4.96862278e-09	1.33177514e-09	-6.30039793e-09
2010.25         	1.76673530e+00	8.83367664e-01	8.83367634e-01	-2.20341383e-01	4.15690889e+00	-4.37725028e+00	4.26707958e+00	1.49498959e-08	3.81376957e-09	-4.96670691e-09	1.33041612e-09	-6.29712303e-09
2010.5          	1.76707516e+00	8.83537596e-01	8.83537567e-01	-2.23706826e-01	4.15433412e+00	-4.37804095e+00	4.26618754e+00	1.49450654e-08	3.81143510e-09	-4.96481890e-09	1.32902565e-09	-6.29384455e-09
2010.75         	1.76741029e+00	8.83705160e-01	8.83705130e-01	-2.26856281e-01	4.15197924e+00	-4.37883552e+00	4.26540738e+00	1.49403529e-08	3.80908488e-09	-4.96296111e-09	1.32760432e-09	-6.29056543e-09
2011            	1.76773757e+00	8.83868798e-01	8.83868769e-01	-2.29794121e-01	4.14983352e+00	-4.37962764e+00	4.26473058e+00	1.49357613e-08	3.80672075e-09	-4.96113470e-09	1.32615340e-09	-6.28728810e-09
2011.25         	1.76803995e+00	8.84019988e-01	8.84019958e-01	-2.32530321e-01	4.14784165e+00	-4.38037197e+00	4.26410681e+00	1.49312931e-08	3.80434452e-09	-4.95934066e-09	1.32467420e-09	-6.28401485e-09
2011.5          	1.76830001e+00	8.84150018e-01	8.84149988e-01	-2.35074439e-01	4.14595415e+00	-4.38102859e+00	4.26349137e+00	1.49269516e-08	3.80195783e-09	-4.95758040e-09	1.32316763e-09	-6.28074802e-09
2011.75         	1.76852804e+00	8.84264037e-01	8.84264007e-01	-2.37425626e-01	4.14419366e+00	-4.38161929e+00	4.26290648e+00	1.49227398e-08	3.79956213e-09	-4.95585512e-09	1.32163457e-09	-6.27748969e-09
2012            	1.76873236e+00	8.84366197e-01	8.84366167e-01	-2.39544285e-01	4.14260616e+00	-4.38215044e+00	4.26237830e+00	1.49186599e-08	3.79715903e-09	-4.95416578e-09	1.32007614e-09	-6.27424192e-09
2012.25         	1.76891768e+00	8.84458857e-01	8.84458827e-01	-2.41465418e-01	4.14118148e+00	-4.38264689e+00	4.26191418e+00	1.49147153e-08	3.79475013e-09	-4.95251372e-09	1.31849327e-09	-6.27100699e-09
2012.5          	1.76910268e+00	8.84551356e-01	8.84551326e-01	-2.43186612e-01	4.13997193e+00	-4.38315854e+00	4.26156523e+00	1.49109104e-08	3.79233704e-09	-4.95090062e-09	1.31688673e-09	-6.26778736e-09
2012.75         	1.76922773e+00	8.84613878e-01	8.84613848e-01	-2.44729044e-01	4.13880970e+00	-4.38353874e+00	4.26117422e+00	1.49072487e-08	3.78992119e-09	-4.94932794e-09	1.31525722e-09	-6.26458516e-09
2013            	1.76934835e+00	8.84674191e-01	8.84674161e-01	-2.46037748e-01	4.13788242e+00	-4.38392017e+00	4.26090129e+00	1.49037335e-08	3.78750430e-09	-4.94779708e-09	1.31360576e-09	-6.26140283e-09
2013.25         	1.76944747e+00	8.84723752e-01	8.84723722e-01	-2.47104324e-01	4.13714731e+00	-4.38425164e+00	4.26069948e+00	1.49003688e-08	3.78508824e-09	-4.94630972e-09	1.31193338e-09	-6.25824310e-09
2013.5          	1.76951465e+00	8.84757342e-01	8.84757312e-01	-2.47954767e-01	4.13656446e+00	-4.38451923e+00	4.26054185e+00	1.48971599e-08	3.78267529e-09	-4.94486789e-09	1.31024134e-09	-6.25510923e-09
2013.75         	1.76954405e+00	8.84772042e-01	8.84772012e-01	-2.48587193e-01	4.13611763e+00	-4.38470482e+00	4.26041123e+00	1.48941133e-08	3.78026848e-09	-4.94347427e-09	1.30853135e-09	-6.25200562e-09
2014            	1.76955263e+00	8.84776332e-01	8.84776302e-01	-2.49030975e-01	4.13582445e+00	-4.38485543e+00	4.26033994e+00	1.48912339e-08	3.77787015e-09	-4.94213089e-09	1.30680471e-09	-6.24893559e-09
2014.25         	1.76953413e+00	8.84767080e-01	8.84767050e-01	-2.49249271e-01	4.13570546e+00	-4.38495473e+00	4.26033009e+00	1.48885219e-08	3.77548092e-09	-4.94083804e-09	1.30506190e-09	-6.24589994e-09
2014.5          	1.76950516e+00	8.84752596e-01	8.84752566e-01	-2.49274283e-01	4.13576693e+00	-4.38504121e+00	4.26040407e+00	1.48859781e-08	3.77310178e-09	-4.93959626e-09	1.30330365e-09	-6.24289991e-09
2014.75         	1.76944195e+00	8.84720990e-01	8.84720960e-01	-2.49102841e-01	4.13595129e+00	-4.38505413e+00	4.26050271e+00	1.48836024e-08	3.77073373e-09	-4.93840589e-09	1.30153078e-09	-6.23993667e-09
2015            	1.76933283e+00	8.84666432e-01	8.84666402e-01	-2.48712183e-01	4.13625539e+00	-4.38496758e+00	4.26061149e+00	1.48813962e-08	3.76837828e-09	-4.93726765e-09	1.29974445e-09	-6.23701211e-09
2015.25         	1.76916313e+00	8.84581580e-01	8.84581551e-01	-2.48065184e-01	4.13666669e+00	-4.38473187e+00	4.26069928e+00	1.48793610e-08	3.76603751e-09	-4.93618246e-09	1.29794628e-09	-6.23412874e-09
2015.5          	1.76899135e+00	8.84495691e-01	8.84495662e-01	-2.47212659e-01	4.13729618e+00	-4.38450884e+00	4.26090251e+00	1.48774980e-08	3.76371333e-09	-4.93515111e-09	1.29613777e-09	-6.23128888e-09
2015.75         	1.76879595e+00	8.84397992e-01	8.84397962e-01	-2.46146870e-01	4.13808863e+00	-4.38423550e+00	4.26116206e+00	1.48758078e-08	3.76140710e-09	-4.93417414e-09	1.29432003e-09	-6.22849417e-09
2016            	1.76859415e+00	8.84297091e-01	8.84297062e-01	-2.44869732e-01	4.13909365e+00	-4.38396338e+00	4.26152851e+00	1.48742921e-08	3.75912037e-09	-4.93325250e-09	1.29249413e-09	-6.22574662e-09
2016.25         	1.76840255e+00	8.84201292e-01	8.84201262e-01	-2.43432762e-01	4.14030006e+00	-4.38373282e+00	4.26201644e+00	1.48729519e-08	3.75685446e-09	-4.93238678e-09	1.29066107e-09	-6.22304785e-09
2016.5          	1.76818414e+00	8.84092085e-01	8.84092055e-01	-2.41804187e-01	4.14164208e+00	-4.38344627e+00	4.26254418e+00	1.48717881e-08	3.75461062e-09	-4.93157767e-09	1.28882179e-09	-6.22039946e-09
2016.75         	1.76791677e+00	8.83958398e-01	8.83958368e-01	-2.39956168e-01	4.14308777e+00	-4.38304394e+00	4.26306586e+00	1.48707999e-08	3.75239015e-09	-4.93082519e-09	1.28697755e-09	-6.21780274e-09
2017            	1.76762806e+00	8.83814043e-01	8.83814013e-01	-2.37902042e-01	4.14469652e+00	-4.38259856e+00	4.26364754e+00	1.48699865e-08	3.75019451e-09	-4.93012945e-09	1.28512978e-09	-6.21525923e-09
2017.25         	1.76729317e+00	8.83646600e-01	8.83646570e-01	-2.35610788e-01	4.14643923e+00	-4.38205002e+00	4.26424463e+00	1.48693483e-08	3.74802539e-09	-4.92949098e-09	1.28327990e-09	-6.21277088e-09
2017.5          	1.76695663e+00	8.83478329e-01	8.83478299e-01	-2.33145432e-01	4.14836123e+00	-4.38150666e+00	4.26493395e+00	1.48688861e-08	3.74588456e-09	-4.92891051e-09	1.28142931e-09	-6.21033981e-09
2017.75         	1.76658671e+00	8.83293372e-01	8.83293342e-01	-2.30456000e-01	4.15043250e+00	-4.38088850e+00	4.26566050e+00	1.48686014e-08	3.74377384e-09	-4.92838880e-09	1.27957944e-09	-6.20796824e-09
2018            	1.76620466e+00	8.83102344e-01	8.83102314e-01	-2.27570326e-01	4.15267860e+00	-4.38024893e+00	4.26646376e+00	1.48684940e-08	3.74169465e-09	-4.92792619e-09	1.27773156e-09	-6.20565775e-09
2018.25         	1.76576395e+00	8.82881990e-01	8.82881961e-01	-2.24489297e-01	4.15498273e+00	-4.37947203e+00	4.26722738e+00	1.48685635e-08	3.73964825e-09	-4.92752290e-09	1.27588680e-09	-6.20340970e-09
2018.5          	1.76531182e+00	8.82655923e-01	8.82655893e-01	-2.21218802e-01	4.15745469e+00	-4.37867350e+00	4.26806409e+00	1.48688093e-08	3.73763578e-09	-4.92717910e-09	1.27404624e-09	-6.20122533e-09
2018.75         	1.76484841e+00	8.82424222e-01	8.82424192e-01	-2.17741526e-01	4.16011585e+00	-4.37785737e+00	4.26898661e+00	1.48692304e-08	3.73565846e-09	-4.92689484e-09	1.27221104e-09	-6.19910588e-09
2019            	1.76435065e+00	8.82175338e-01	8.82175308e-01	-2.14080541e-01	4.16288470e+00	-4.37696524e+00	4.26992497e+00	1.48698264e-08	3.73371766e-09	-4.92667026e-09	1.27038252e-09	-6.19705279e-09
2019.25         	1.76383235e+00	8.81916188e-01	8.81916159e-01	-2.10230278e-01	4.16580049e+00	-4.37603077e+00	4.27091563e+00	1.48705963e-08	3.73181484e-09	-4.92650546e-09	1.26856211e-09	-6.19506757e-09
2019.5          	1.76334500e+00	8.81672514e-01	8.81672484e-01	-2.06195554e-01	4.16899012e+00	-4.37518567e+00	4.27208790e+00	1.48715385e-08	3.72995120e-09	-4.92640020e-09	1.26675110e-09	-6.19315130e-09
2019.75         	1.76281148e+00	8.81405754e-01	8.81405725e-01	-2.01996647e-01	4.17223733e+00	-4.37423398e+00	4.27323565e+00	1.48726511e-08	3.72812780e-09	-4.92635422e-09	1.26495069e-09	-6.19130491e-09
2020            	1.76226125e+00	8.81130642e-01	8.81130612e-01	-1.97621766e-01	4.17562475e+00	-4.37324652e+00	4.27443563e+00	1.48739318e-08	3.72634567e-09	-4.92636697e-09	1.26316218e-09	-6.18952915e-09
2020.25         	1.76169435e+00	8.80847190e-01	8.80847160e-01	-1.93071962e-01	4.17915043e+00	-4.37222239e+00	4.27568641e+00	1.48753771e-08	3.72460591e-09	-4.92643766e-09	1.26138708e-09	-6.18782474e-09
2020.5          	1.76109853e+00	8.80549281e-01	8.80549251e-01	-1.88375416e-01	4.18275683e+00	-4.37113224e+00	4.27694454e+00	1.48769848e-08	3.72290952e-09	-4.92656587e-09	1.25962658e-09	-6.18619245e-09
2020.75         	1.76047759e+00	8.80238811e-01	8.80238781e-01	-1.83506211e-01	4.18648307e+00	-4.36998929e+00	4.27823618e+00	1.48787570e-08	3.72125763e-09	-4.92675261e-09	1.25788133e-09	-6.18463394e-09
2021            	1.75986113e+00	8.79930578e-01	8.79930549e-01	-1.78445767e-01	4.19042172e+00	-4.36886749e+00	4.27964461e+00	1.48806944e-08	3.71965156e-09	-4.92699860e-09	1.25615227e-09	-6.18315086e-09
2021.25         	1.75924193e+00	8.79620979e-01	8.79620949e-01	-1.73220902e-01	4.19452668e+00	-4.36774758e+00	4.28113713e+00	1.48827959e-08	3.71809263e-09	-4.92730381e-09	1.25444072e-09	-6.18174453e-09
2021.5          	1.75856606e+00	8.79283045e-01	8.79283016e-01	-1.67811928e-01	4.19867959e+00	-4.36649152e+00	4.28258556e+00	1.48850597e-08	3.71658209e-09	-4.92766802e-09	1.25274808e-09	-6.18041610e-09
2021.75         	1.75790791e+00	8.78953969e-01	8.78953939e-01	-1.62254148e-01	4.20303118e+00	-4.36528532e+00	4.28415825e+00	1.48874785e-08	3.71512086e-09	-4.92808892e-09	1.25107640e-09	-6.17916532e-09
2022            	1.75723267e+00	8.78616352e-01	8.78616322e-01	-1.56566628e-01	4.20747624e+00	-4.36404286e+00	4.28575955e+00	1.48900504e-08	3.71370975e-09	-4.92856625e-09	1.24942663e-09	-6.17799288e-09
2022.25         	1.75656504e+00	8.78282533e-01	8.78282503e-01	-1.50728383e-01	4.21209733e+00	-4.36282572e+00	4.28746152e+00	1.48927770e-08	3.71234946e-09	-4.92910093e-09	1.24779899e-09	-6.17689993e-09
2022.5          	1.75591359e+00	8.77956809e-01	8.77956779e-01	-1.44752547e-01	4.21690074e+00	-4.36165329e+00	4.28927702e+00	1.48956558e-08	3.71104084e-09	-4.92969242e-09	1.24619462e-09	-6.17588705e-09
2022.75         	1.75523175e+00	8.77615889e-01	8.77615859e-01	-1.38636660e-01	4.22177542e+00	-4.36041208e+00	4.29109375e+00	1.48986836e-08	3.70978475e-09	-4.93033991e-09	1.24461480e-09	-6.17495470e-09
2023            	1.75455415e+00	8.77277091e-01	8.77277061e-01	-1.32376847e-01	4.22680282e+00	-4.35917967e+00	4.29299125e+00	1.49018527e-08	3.70858223e-09	-4.93104113e-09	1.24306167e-09	-6.17410280e-09
2023.25         	1.75386321e+00	8.76931619e-01	8.76931589e-01	-1.25980610e-01	4.23194160e+00	-4.35792221e+00	4.29493190e+00	1.49051614e-08	3.70743410e-09	-4.93179573e-09	1.24153623e-09	-6.17333197e-09
2023.5          	1.75315383e+00	8.76576931e-01	8.76576901e-01	-1.19445161e-01	4.23717614e+00	-4.35662130e+00	4.29689872e+00	1.49086045e-08	3.70634136e-09	-4.93260218e-09	1.24004027e-09	-6.17264245e-09
2023.75         	1.75244152e+00	8.76220774e-01	8.76220744e-01	-1.12790482e-01	4.24253272e+00	-4.35532320e+00	4.29892796e+00	1.49121809e-08	3.70530490e-09	-4.93346032e-09	1.23857474e-09	-6.17203506e-09
2024            	1.75173944e+00	8.75869734e-01	8.75869705e-01	-1.06031595e-01	4.24802407e+00	-4.35405566e+00	4.30103986e+00	1.49158870e-08	3.70432537e-09	-4.93436913e-09	1.23714080e-09	-6.17150993e-09
2024.25         	1.75104010e+00	8.75520063e-01	8.75520034e-01	-9.91554976e-02	4.25364359e+00	-4.35279908e+00	4.30322134e+00	1.49197249e-08	3.70340339e-09	-4.93532968e-09	1.23573855e-09	-6.17106824e-09
2024.5          	1.75034887e+00	8.75174448e-01	8.75174418e-01	-9.22045287e-02	4.25936757e+00	-4.35157210e+00	4.30546984e+00	1.49236882e-08	3.70253947e-09	-4.93633993e-09	1.23436950e-09	-6.17070943e-09
2024.75         	1.74967809e+00	8.74839062e-01	8.74839032e-01	-8.51283185e-02	4.26526509e+00	-4.35039341e+00	4.30782925e+00	1.49277770e-08	3.70173424e-09	-4.93740028e-09	1.23303410e-09	-6.17043438e-09
2025            	1.74898715e+00	8.74493592e-01	8.74493562e-01	-7.79668271e-02	4.27119659e+00	-4.34916342e+00	4.31018001e+00	1.49319880e-08	3.70098767e-09	-4.93850986e-09	1.23173274e-09	-6.17024260e-09
2025.25         	1.74828986e+00	8.74144944e-01	8.74144914e-01	-7.06807018e-02	4.27723256e+00	-4.34791326e+00	4.31257291e+00	1.49363091e-08	3.70029929e-09	-4.93966452e-09	1.23046703e-09	-6.17013155e-09
2025.5          	1.74760005e+00	8.73800041e-01	8.73800011e-01	-6.32794991e-02	4.28340719e+00	-4.34668669e+00	4.31504694e+00	1.49407388e-08	3.69967034e-09	-4.94086405e-09	1.22923831e-09	-6.17010236e-09
2025.75         	1.74691797e+00	8.73459000e-01	8.73458970e-01	-5.57953102e-02	4.28968679e+00	-4.34548210e+00	4.31758444e+00	1.49452773e-08	3.69910172e-09	-4.94210892e-09	1.22804725e-09	-6.17015618e-09
2026            	1.74627027e+00	8.73135150e-01	8.73135120e-01	-4.82643043e-02	4.29610634e+00	-4.34437065e+00	4.32023850e+00	1.49499173e-08	3.69859397e-09	-4.94339661e-09	1.22689566e-09	-6.17029228e-09
2026.25         	1.74563485e+00	8.72817442e-01	8.72817412e-01	-4.06620960e-02	4.30262884e+00	-4.34329093e+00	4.32295988e+00	1.49546531e-08	3.69814730e-09	-4.94472533e-09	1.22578464e-09	-6.17050997e-09
2026.5          	1.74502755e+00	8.72513788e-01	8.72513758e-01	-3.30198294e-02	4.30926583e+00	-4.34228565e+00	4.32577574e+00	1.49594814e-08	3.69776163e-09	-4.94609418e-09	1.22471454e-09	-6.17080872e-09
2026.75         	1.74438862e+00	8.72194323e-01	8.72194293e-01	-2.52885835e-02	4.31590658e+00	-4.34119516e+00	4.32855087e+00	1.49644008e-08	3.69743748e-09	-4.94750294e-09	1.22368601e-09	-6.17118894e-09
2027            	1.74380558e+00	8.71902803e-01	8.71902773e-01	-1.75248721e-02	4.32273089e+00	-4.34025576e+00	4.33149333e+00	1.49694066e-08	3.69717495e-09	-4.94895009e-09	1.22269991e-09	-6.17165000e-09
2027.25         	1.74322501e+00	8.71612519e-01	8.71612489e-01	-9.68074820e-03	4.32964536e+00	-4.33932611e+00	4.33448574e+00	1.49744938e-08	3.69697398e-09	-4.95043414e-09	1.22175691e-09	-6.17219105e-09
2027.5          	1.74267539e+00	8.71337711e-01	8.71337681e-01	-1.77855780e-03	4.33669976e+00	-4.33847831e+00	4.33758903e+00	1.49796589e-08	3.69683485e-09	-4.95195405e-09	1.22085783e-09	-6.17281188e-09
2027.75         	1.74212431e+00	8.71062169e-01	8.71062139e-01	6.17561461e-03	4.34379838e+00	-4.33762276e+00	4.34071057e+00	1.49848992e-08	3.69675785e-09	-4.95350907e-09	1.22000331e-09	-6.17351238e-09
2028            	1.74157268e+00	8.70786357e-01	8.70786327e-01	1.41592810e-02	4.35091803e+00	-4.33675875e+00	4.34383839e+00	1.49902096e-08	3.69674306e-09	-4.95509759e-09	1.21919427e-09	-6.17429186e-09
2028.25         	1.74103846e+00	8.70519244e-01	8.70519214e-01	2.21766820e-02	4.35811674e+00	-4.33594006e+00	4.34702840e+00	1.49955843e-08	3.69679034e-09	-4.95671768e-09	1.21843150e-09	-6.17514918e-09
2028.5          	1.74051620e+00	8.70258117e-01	8.70258087e-01	3.02293743e-02	4.36537229e+00	-4.33514292e+00	4.35025761e+00	1.50010191e-08	3.69689954e-09	-4.95836805e-09	1.21771552e-09	-6.17608356e-09
2028.75         	1.74003029e+00	8.70015161e-01	8.70015131e-01	3.82884854e-02	4.37272288e+00	-4.33443439e+00	4.35357863e+00	1.50065091e-08	3.69707037e-09	-4.96004702e-09	1.21704685e-09	-6.17709388e-09
2029            	1.73958133e+00	8.69790682e-01	8.69790652e-01	4.63510221e-02	4.38016646e+00	-4.33381544e+00	4.35699095e+00	1.50120500e-08	3.69730240e-09	-4.96175324e-09	1.21642578e-09	-6.17817902e-09
2029.25         	1.73913431e+00	8.69567171e-01	8.69567141e-01	5.44241537e-02	4.38762184e+00	-4.33319769e+00	4.36040977e+00	1.50176372e-08	3.69759541e-09	-4.96348523e-09	1.21585279e-09	-6.17933802e-09
2029.5          	1.73870985e+00	8.69354940e-01	8.69354910e-01	6.25079729e-02	4.39514063e+00	-4.33263266e+00	4.36388665e+00	1.50232642e-08	3.69794927e-09	-4.96524071e-09	1.21532891e-09	-6.18056962e-09
2029.75         	1.73828310e+00	8.69141563e-01	8.69141533e-01	7.06218709e-02	4.40268299e+00	-4.33206112e+00	4.36737206e+00	1.50289283e-08	3.69836392e-09	-4.96701885e-09	1.21485450e-09	-6.18187335e-09
2030            	1.73790119e+00	8.68950611e-01	8.68950581e-01	7.87103947e-02	4.41031208e+00	-4.33160169e+00	4.37095689e+00	1.50346278e-08	3.69883921e-09	-4.96881925e-09	1.21442959e-09	-6.18324883e-09
2030.25         	1.73749494e+00	8.68747486e-01	8.68747456e-01	8.67961055e-02	4.41787122e+00	-4.33107511e+00	4.37447316e+00	1.50403630e-08	3.69937494e-09	-4.97064210e-09	1.21405389e-09	-6.18469599e-09
2030.5          	1.73715970e+00	8.68579863e-01	8.68579833e-01	9.48615873e-02	4.42558085e+00	-4.33071927e+00	4.37815006e+00	1.50461304e-08	3.69997063e-09	-4.97248625e-09	1.21372750e-09	-6.18621375e-09
2030.75         	1.73683190e+00	8.68415964e-01	8.68415934e-01	1.02899703e-01	4.43327726e+00	-4.33037755e+00	4.38182740e+00	1.50519229e-08	3.70062577e-09	-4.97434913e-09	1.21345120e-09	-6.18780033e-09
2031            	1.73653056e+00	8.68265296e-01	8.68265266e-01	1.10907371e-01	4.44100427e+00	-4.33009690e+00	4.38555058e+00	1.50577357e-08	3.70133968e-09	-4.97622912e-09	1.21322512e-09	-6.18945424e-09
2031.25         	1.73628628e+00	8.68143153e-01	8.68143122e-01	1.18860794e-01	4.44881005e+00	-4.32994925e+00	4.38937965e+00	1.50635669e-08	3.70211179e-09	-4.97812554e-09	1.21304903e-09	-6.19117456e-09
2031.5          	1.73601997e+00	8.68010002e-01	8.68009972e-01	1.26801922e-01	4.45654280e+00	-4.32974088e+00	4.39314184e+00	1.50694153e-08	3.70294155e-09	-4.98003812e-09	1.21292249e-09	-6.19296061e-09
2031.75         	1.73575740e+00	8.67878715e-01	8.67878684e-01	1.34720896e-01	4.46425748e+00	-4.32953658e+00	4.39689703e+00	1.50752739e-08	3.70382763e-09	-4.98196434e-09	1.21284546e-09	-6.19480980e-09
2032            	1.73550805e+00	8.67754040e-01	8.67754010e-01	1.42606119e-01	4.47197144e+00	-4.32936532e+00	4.40066838e+00	1.50811381e-08	3.70476974e-09	-4.98390252e-09	1.21281848e-09	-6.19672100e-09
2032.25         	1.73526700e+00	8.67633517e-01	8.67633487e-01	1.50437593e-01	4.47964291e+00	-4.32920532e+00	4.40442411e+00	1.50870042e-08	3.70576770e-09	-4.98585142e-09	1.21284200e-09	-6.19869341e-09
2032.5          	1.73506272e+00	8.67531375e-01	8.67531345e-01	1.58223165e-01	4.48735460e+00	-4.32913143e+00	4.40824302e+00	1.50928693e-08	3.70682089e-09	-4.98780999e-09	1.21291590e-09	-6.20072589e-09
2032.75         	1.73487333e+00	8.67436682e-01	8.67436652e-01	1.65918889e-01	4.49500602e+00	-4.32908713e+00	4.41204658e+00	1.50987287e-08	3.70792798e-09	-4.98977650e-09	1.21303973e-09	-6.20281623e-09
2033            	1.73475126e+00	8.67375647e-01	8.67375616e-01	1.73519722e-01	4.50272110e+00	-4.32920137e+00	4.41596123e+00	1.51045806e-08	3.70908843e-09	-4.99175037e-09	1.21321324e-09	-6.20496361e-09
2033.25         	1.73463156e+00	8.67315797e-01	8.67315766e-01	1.81051820e-01	4.51036566e+00	-4.32931384e+00	4.41983975e+00	1.51104242e-08	3.71030173e-09	-4.99373133e-09	1.21343606e-09	-6.20716739e-09
2033.5          	1.73456713e+00	8.67283582e-01	8.67283552e-01	1.88483958e-01	4.51803996e+00	-4.32955600e+00	4.42379798e+00	1.51162579e-08	3.71156710e-09	-4.99571888e-09	1.21370766e-09	-6.20942654e-09
2033.75         	1.73451575e+00	8.67257888e-01	8.67257858e-01	1.95833389e-01	4.52565799e+00	-4.32982460e+00	4.42774130e+00	1.51220754e-08	3.71288380e-09	-4.99771073e-09	1.21402844e-09	-6.21173916e-09
2034            	1.73447166e+00	8.67235844e-01	8.67235813e-01	2.03098905e-01	4.53320292e+00	-4.33010401e+00	4.43165347e+00	1.51278719e-08	3.71425172e-09	-4.99970513e-09	1.21439916e-09	-6.21410429e-09
2034.25         	1.73444437e+00	8.67222200e-01	8.67222170e-01	2.10288625e-01	4.54070337e+00	-4.33041474e+00	4.43555905e+00	1.51336420e-08	3.71567076e-09	-5.00170023e-09	1.21482065e-09	-6.21652088e-09
2034.5          	1.73442059e+00	8.67210311e-01	8.67210281e-01	2.17407645e-01	4.54813011e+00	-4.33072246e+00	4.43942629e+00	1.51393845e-08	3.71714008e-09	-5.00369556e-09	1.21529230e-09	-6.21898786e-09
2034.75         	1.73442441e+00	8.67212221e-01	8.67212191e-01	2.24426462e-01	4.55551645e+00	-4.33108999e+00	4.44330322e+00	1.51450980e-08	3.71865871e-09	-5.00569059e-09	1.21581341e-09	-6.22150400e-09
2035            	1.73444087e+00	8.67220448e-01	8.67220418e-01	2.31326649e-01	4.56280858e+00	-4.33148193e+00	4.44714525e+00	1.51507783e-08	3.72022535e-09	-5.00768380e-09	1.21638345e-09	-6.22406724e-09
2035.25         	1.73448489e+00	8.67242460e-01	8.67242430e-01	2.38086753e-01	4.57002022e+00	-4.33193346e+00	4.45097684e+00	1.51564231e-08	3.72183851e-09	-5.00967429e-09	1.21700137e-09	-6.22667566e-09
2035.5          	1.73456369e+00	8.67281863e-01	8.67281832e-01	2.44701396e-01	4.57716174e+00	-4.33246035e+00	4.45481104e+00	1.51620300e-08	3.72349663e-09	-5.01166113e-09	1.21766606e-09	-6.22932719e-09
2035.75         	1.73464042e+00	8.67320224e-01	8.67320193e-01	2.51194156e-01	4.58416596e+00	-4.33297180e+00	4.45856888e+00	1.51675955e-08	3.72519843e-09	-5.01364295e-09	1.21837696e-09	-6.23201990e-09
2036            	1.73475577e+00	8.67377902e-01	8.67377871e-01	2.57592966e-01	4.59116230e+00	-4.33356933e+00	4.46236582e+00	1.51731156e-08	3.72694288e-09	-5.01561827e-09	1.21913374e-09	-6.23475201e-09
2036.25         	1.73485678e+00	8.67428406e-01	8.67428376e-01	2.63846660e-01	4.59796126e+00	-4.33411460e+00	4.46603793e+00	1.51785891e-08	3.72872964e-09	-5.01758673e-09	1.21993628e-09	-6.23752300e-09